[prun] Resource manager = slurm
[prun] Launch cmd = srun --mpi=pmix pw.x -in LiF.nscf.K16.E70.B40.in -npool 4 (family=openmpi4)

     Program PWSCF v.7.3.1 starts on 13Jul2026 at 11:19:11 

     This program is part of the open-source Quantum ESPRESSO suite
     for quantum simulation of materials; please cite
         "P. Giannozzi et al., J. Phys.:Condens. Matter 21 395502 (2009);
         "P. Giannozzi et al., J. Phys.:Condens. Matter 29 465901 (2017);
         "P. Giannozzi et al., J. Chem. Phys. 152 154105 (2020);
          URL http://www.quantum-espresso.org", 
     in publications or presentations arising from this work. More details at
     http://www.quantum-espresso.org/quote

     Parallel version (MPI & OpenMP), running on      64 processor cores
     Number of MPI processes:                32
     Threads/MPI process:                     2

     MPI processes distributed on     2 nodes
     43474 MiB available memory on the printing compute node when the environment starts

     Reading input from LiF.nscf.K16.E70.B40.in

     Current dimensions of program PWSCF are:
     Max number of different atomic species (ntypx) = 10
     Max number of k-points (npk) =  40000
     Max angular momentum in pseudopotentials (lmaxx) =  4

     IMPORTANT: XC functional enforced from input :
     Exchange-correlation= PBE
                           (   1   4   3   4   0   0   0)
     Any further DFT definition will be discarded
     Please, verify this is what you really want


     Atomic positions and unit cell read from directory:
     ./outs/LiF.save/

     Message from routine setup:
     using ibrav=0 with symmetry is DISCOURAGED, use correct ibrav instead

     K-points division:     npool     =       4
     R & G space division:  proc/nbgrp/npool/nimage =       8
     Subspace diagonalization in iterative solution of the eigenvalue problem:
     a serial algorithm will be used


     Parallelization info
     --------------------
     sticks:   dense  smooth     PW     G-vecs:    dense   smooth      PW
     Min          72      72     23                 1147     1147     204
     Max          73      73     24                 1149     1149     206
     Sum         583     583    187                 9185     9185    1639

     Using Slab Decomposition



     bravais-lattice index     =            0
     lattice parameter (alat)  =       5.4564  a.u.
     unit-cell volume          =     114.8712 (a.u.)^3
     number of atoms/cell      =            2
     number of atomic types    =            2
     number of electrons       =        10.00
     number of Kohn-Sham states=           40
     kinetic-energy cutoff     =      70.0000  Ry
     charge density cutoff     =     280.0000  Ry
     Exchange-correlation= PBE
                           (   1   4   3   4   0   0   0)

     celldm(1)=   5.456432  celldm(2)=   0.000000  celldm(3)=   0.000000
     celldm(4)=   0.000000  celldm(5)=   0.000000  celldm(6)=   0.000000

     crystal axes: (cart. coord. in units of alat)
               a(1) = (   0.000000   0.707107   0.707107 )  
               a(2) = (   0.707107   0.000000   0.707107 )  
               a(3) = (   0.707107   0.707107   0.000000 )  

     reciprocal axes: (cart. coord. in units 2 pi/alat)
               b(1) = ( -0.707107  0.707107  0.707107 )  
               b(2) = (  0.707107 -0.707107  0.707107 )  
               b(3) = (  0.707107  0.707107 -0.707107 )  


     PseudoPot. # 1 for Li read from file:
     /home/pillai/my_codes/yambo/LiF/PS/Li_ONCV_PBE-1.2.upf
     MD5 check sum: c91dd4cee9943b136ac3b62641658f95
     Pseudo is Norm-conserving, Zval =  3.0
     Generated using ONCVPSP code by D. R. Hamann
     Using radial grid of  602 points,  4 beta functions with: 
                l(1) =   0
                l(2) =   0
                l(3) =   1
                l(4) =   1

     PseudoPot. # 2 for F  read from file:
     /home/pillai/my_codes/yambo/LiF/PS/F_ONCV_PBE-1.2.upf
     MD5 check sum: 1d8275f47d602dd53cad6bcdc0eda7dc
     Pseudo is Norm-conserving, Zval =  7.0
     Generated using ONCVPSP code by D. R. Hamann
     Using radial grid of  602 points,  4 beta functions with: 
                l(1) =   0
                l(2) =   0
                l(3) =   1
                l(4) =   1

     atomic species   valence    mass     pseudopotential
     Li                3.00     6.94100     Li( 1.00)
     F                 7.00    18.99840     F ( 1.00)

     48 Sym. Ops., with inversion, found


                                    s                        frac. trans.

      isym =  1     identity                                     

 cryst.   s( 1) = (     1          0          0      )
                  (     0          1          0      )
                  (     0          0          1      )

 cart.    s( 1) = (  1.0000000  0.0000000  0.0000000 )
                  (  0.0000000  1.0000000  0.0000000 )
                  (  0.0000000  0.0000000  1.0000000 )


      isym =  2     180 deg rotation - cart. axis [0,0,1]        

 cryst.   s( 2) = (     0          1         -1      )
                  (     1          0         -1      )
                  (     0          0         -1      )

 cart.    s( 2) = ( -1.0000000  0.0000000  0.0000000 )
                  (  0.0000000 -1.0000000  0.0000000 )
                  (  0.0000000  0.0000000  1.0000000 )


      isym =  3     180 deg rotation - cart. axis [0,1,0]        

 cryst.   s( 3) = (     0         -1          1      )
                  (     0         -1          0      )
                  (     1         -1          0      )

 cart.    s( 3) = ( -1.0000000  0.0000000  0.0000000 )
                  (  0.0000000  1.0000000  0.0000000 )
                  (  0.0000000  0.0000000 -1.0000000 )


      isym =  4     180 deg rotation - cart. axis [1,0,0]        

 cryst.   s( 4) = (    -1          0          0      )
                  (    -1          0          1      )
                  (    -1          1          0      )

 cart.    s( 4) = (  1.0000000  0.0000000  0.0000000 )
                  (  0.0000000 -1.0000000  0.0000000 )
                  (  0.0000000  0.0000000 -1.0000000 )


      isym =  5     180 deg rotation - cart. axis [1,1,0]        

 cryst.   s( 5) = (    -1          0          1      )
                  (     0         -1          1      )
                  (     0          0          1      )

 cart.    s( 5) = (  0.0000000  1.0000000  0.0000000 )
                  (  1.0000000  0.0000000  0.0000000 )
                  (  0.0000000  0.0000000 -1.0000000 )


      isym =  6     180 deg rotation - cart. axis [1,-1,0]       

 cryst.   s( 6) = (     0         -1          0      )
                  (    -1          0          0      )
                  (     0          0         -1      )

 cart.    s( 6) = (  0.0000000 -1.0000000  0.0000000 )
                  ( -1.0000000  0.0000000  0.0000000 )
                  (  0.0000000  0.0000000 -1.0000000 )


      isym =  7      90 deg rotation - cart. axis [0,0,-1]       

 cryst.   s( 7) = (     0          1          0      )
                  (     0          1         -1      )
                  (    -1          1          0      )

 cart.    s( 7) = (  0.0000000  1.0000000  0.0000000 )
                  ( -1.0000000  0.0000000  0.0000000 )
                  (  0.0000000  0.0000000  1.0000000 )


      isym =  8      90 deg rotation - cart. axis [0,0,1]        

 cryst.   s( 8) = (     1          0         -1      )
                  (     1          0          0      )
                  (     1         -1          0      )

 cart.    s( 8) = (  0.0000000 -1.0000000  0.0000000 )
                  (  1.0000000  0.0000000  0.0000000 )
                  (  0.0000000  0.0000000  1.0000000 )


      isym =  9     180 deg rotation - cart. axis [1,0,1]        

 cryst.   s( 9) = (    -1          1          0      )
                  (     0          1          0      )
                  (     0          1         -1      )

 cart.    s( 9) = (  0.0000000  0.0000000  1.0000000 )
                  (  0.0000000 -1.0000000  0.0000000 )
                  (  1.0000000  0.0000000  0.0000000 )


      isym = 10     180 deg rotation - cart. axis [-1,0,1]       

 cryst.   s(10) = (     0          0         -1      )
                  (     0         -1          0      )
                  (    -1          0          0      )

 cart.    s(10) = (  0.0000000  0.0000000 -1.0000000 )
                  (  0.0000000 -1.0000000  0.0000000 )
                  ( -1.0000000  0.0000000  0.0000000 )


      isym = 11      90 deg rotation - cart. axis [0,1,0]        

 cryst.   s(11) = (     0          0          1      )
                  (    -1          0          1      )
                  (     0         -1          1      )

 cart.    s(11) = (  0.0000000  0.0000000  1.0000000 )
                  (  0.0000000  1.0000000  0.0000000 )
                  ( -1.0000000  0.0000000  0.0000000 )


      isym = 12      90 deg rotation - cart. axis [0,-1,0]       

 cryst.   s(12) = (     1         -1          0      )
                  (     1          0         -1      )
                  (     1          0          0      )

 cart.    s(12) = (  0.0000000  0.0000000 -1.0000000 )
                  (  0.0000000  1.0000000  0.0000000 )
                  (  1.0000000  0.0000000  0.0000000 )


      isym = 13     180 deg rotation - cart. axis [0,1,1]        

 cryst.   s(13) = (     1          0          0      )
                  (     1         -1          0      )
                  (     1          0         -1      )

 cart.    s(13) = ( -1.0000000  0.0000000  0.0000000 )
                  (  0.0000000  0.0000000  1.0000000 )
                  (  0.0000000  1.0000000  0.0000000 )


      isym = 14     180 deg rotation - cart. axis [0,1,-1]       

 cryst.   s(14) = (    -1          0          0      )
                  (     0          0         -1      )
                  (     0         -1          0      )

 cart.    s(14) = ( -1.0000000  0.0000000  0.0000000 )
                  (  0.0000000  0.0000000 -1.0000000 )
                  (  0.0000000 -1.0000000  0.0000000 )


      isym = 15      90 deg rotation - cart. axis [-1,0,0]       

 cryst.   s(15) = (     0         -1          1      )
                  (     0          0          1      )
                  (    -1          0          1      )

 cart.    s(15) = (  1.0000000  0.0000000  0.0000000 )
                  (  0.0000000  0.0000000  1.0000000 )
                  (  0.0000000 -1.0000000  0.0000000 )


      isym = 16      90 deg rotation - cart. axis [1,0,0]        

 cryst.   s(16) = (     0          1         -1      )
                  (    -1          1          0      )
                  (     0          1          0      )

 cart.    s(16) = (  1.0000000  0.0000000  0.0000000 )
                  (  0.0000000  0.0000000 -1.0000000 )
                  (  0.0000000  1.0000000  0.0000000 )


      isym = 17     120 deg rotation - cart. axis [-1,-1,-1]     

 cryst.   s(17) = (     0          0          1      )
                  (     1          0          0      )
                  (     0          1          0      )

 cart.    s(17) = (  0.0000000  1.0000000  0.0000000 )
                  (  0.0000000  0.0000000  1.0000000 )
                  (  1.0000000  0.0000000  0.0000000 )


      isym = 18     120 deg rotation - cart. axis [-1,1,1]       

 cryst.   s(18) = (     1         -1          0      )
                  (     0         -1          1      )
                  (     0         -1          0      )

 cart.    s(18) = (  0.0000000 -1.0000000  0.0000000 )
                  (  0.0000000  0.0000000  1.0000000 )
                  ( -1.0000000  0.0000000  0.0000000 )


      isym = 19     120 deg rotation - cart. axis [1,1,-1]       

 cryst.   s(19) = (    -1          1          0      )
                  (    -1          0          0      )
                  (    -1          0          1      )

 cart.    s(19) = (  0.0000000  1.0000000  0.0000000 )
                  (  0.0000000  0.0000000 -1.0000000 )
                  ( -1.0000000  0.0000000  0.0000000 )


      isym = 20     120 deg rotation - cart. axis [1,-1,1]       

 cryst.   s(20) = (     0          0         -1      )
                  (     0          1         -1      )
                  (     1          0         -1      )

 cart.    s(20) = (  0.0000000 -1.0000000  0.0000000 )
                  (  0.0000000  0.0000000 -1.0000000 )
                  (  1.0000000  0.0000000  0.0000000 )


      isym = 21     120 deg rotation - cart. axis [1,1,1]        

 cryst.   s(21) = (     0          1          0      )
                  (     0          0          1      )
                  (     1          0          0      )

 cart.    s(21) = (  0.0000000  0.0000000  1.0000000 )
                  (  1.0000000  0.0000000  0.0000000 )
                  (  0.0000000  1.0000000  0.0000000 )


      isym = 22     120 deg rotation - cart. axis [-1,1,-1]      

 cryst.   s(22) = (    -1          0          1      )
                  (    -1          1          0      )
                  (    -1          0          0      )

 cart.    s(22) = (  0.0000000  0.0000000  1.0000000 )
                  ( -1.0000000  0.0000000  0.0000000 )
                  (  0.0000000 -1.0000000  0.0000000 )


      isym = 23     120 deg rotation - cart. axis [1,-1,-1]      

 cryst.   s(23) = (     1          0         -1      )
                  (     0          0         -1      )
                  (     0          1         -1      )

 cart.    s(23) = (  0.0000000  0.0000000 -1.0000000 )
                  ( -1.0000000  0.0000000  0.0000000 )
                  (  0.0000000  1.0000000  0.0000000 )


      isym = 24     120 deg rotation - cart. axis [-1,-1,1]      

 cryst.   s(24) = (     0         -1          0      )
                  (     1         -1          0      )
                  (     0         -1          1      )

 cart.    s(24) = (  0.0000000  0.0000000 -1.0000000 )
                  (  1.0000000  0.0000000  0.0000000 )
                  (  0.0000000 -1.0000000  0.0000000 )


      isym = 25     inversion                                    

 cryst.   s(25) = (    -1          0          0      )
                  (     0         -1          0      )
                  (     0          0         -1      )

 cart.    s(25) = ( -1.0000000  0.0000000  0.0000000 )
                  (  0.0000000 -1.0000000  0.0000000 )
                  (  0.0000000  0.0000000 -1.0000000 )


      isym = 26     inv. 180 deg rotation - cart. axis [0,0,1]   

 cryst.   s(26) = (     0         -1          1      )
                  (    -1          0          1      )
                  (     0          0          1      )

 cart.    s(26) = (  1.0000000  0.0000000  0.0000000 )
                  (  0.0000000  1.0000000  0.0000000 )
                  (  0.0000000  0.0000000 -1.0000000 )


      isym = 27     inv. 180 deg rotation - cart. axis [0,1,0]   

 cryst.   s(27) = (     0          1         -1      )
                  (     0          1          0      )
                  (    -1          1          0      )

 cart.    s(27) = (  1.0000000  0.0000000  0.0000000 )
                  (  0.0000000 -1.0000000  0.0000000 )
                  (  0.0000000  0.0000000  1.0000000 )


      isym = 28     inv. 180 deg rotation - cart. axis [1,0,0]   

 cryst.   s(28) = (     1          0          0      )
                  (     1          0         -1      )
                  (     1         -1          0      )

 cart.    s(28) = ( -1.0000000  0.0000000  0.0000000 )
                  (  0.0000000  1.0000000  0.0000000 )
                  (  0.0000000  0.0000000  1.0000000 )


      isym = 29     inv. 180 deg rotation - cart. axis [1,1,0]   

 cryst.   s(29) = (     1          0         -1      )
                  (     0          1         -1      )
                  (     0          0         -1      )

 cart.    s(29) = (  0.0000000 -1.0000000  0.0000000 )
                  ( -1.0000000  0.0000000  0.0000000 )
                  (  0.0000000  0.0000000  1.0000000 )


      isym = 30     inv. 180 deg rotation - cart. axis [1,-1,0]  

 cryst.   s(30) = (     0          1          0      )
                  (     1          0          0      )
                  (     0          0          1      )

 cart.    s(30) = (  0.0000000  1.0000000  0.0000000 )
                  (  1.0000000  0.0000000  0.0000000 )
                  (  0.0000000  0.0000000  1.0000000 )


      isym = 31     inv.  90 deg rotation - cart. axis [0,0,-1]  

 cryst.   s(31) = (     0         -1          0      )
                  (     0         -1          1      )
                  (     1         -1          0      )

 cart.    s(31) = (  0.0000000 -1.0000000  0.0000000 )
                  (  1.0000000  0.0000000  0.0000000 )
                  (  0.0000000  0.0000000 -1.0000000 )


      isym = 32     inv.  90 deg rotation - cart. axis [0,0,1]   

 cryst.   s(32) = (    -1          0          1      )
                  (    -1          0          0      )
                  (    -1          1          0      )

 cart.    s(32) = (  0.0000000  1.0000000  0.0000000 )
                  ( -1.0000000  0.0000000  0.0000000 )
                  (  0.0000000  0.0000000 -1.0000000 )


      isym = 33     inv. 180 deg rotation - cart. axis [1,0,1]   

 cryst.   s(33) = (     1         -1          0      )
                  (     0         -1          0      )
                  (     0         -1          1      )

 cart.    s(33) = (  0.0000000  0.0000000 -1.0000000 )
                  (  0.0000000  1.0000000  0.0000000 )
                  ( -1.0000000  0.0000000  0.0000000 )


      isym = 34     inv. 180 deg rotation - cart. axis [-1,0,1]  

 cryst.   s(34) = (     0          0          1      )
                  (     0          1          0      )
                  (     1          0          0      )

 cart.    s(34) = (  0.0000000  0.0000000  1.0000000 )
                  (  0.0000000  1.0000000  0.0000000 )
                  (  1.0000000  0.0000000  0.0000000 )


      isym = 35     inv.  90 deg rotation - cart. axis [0,1,0]   

 cryst.   s(35) = (     0          0         -1      )
                  (     1          0         -1      )
                  (     0          1         -1      )

 cart.    s(35) = (  0.0000000  0.0000000 -1.0000000 )
                  (  0.0000000 -1.0000000  0.0000000 )
                  (  1.0000000  0.0000000  0.0000000 )


      isym = 36     inv.  90 deg rotation - cart. axis [0,-1,0]  

 cryst.   s(36) = (    -1          1          0      )
                  (    -1          0          1      )
                  (    -1          0          0      )

 cart.    s(36) = (  0.0000000  0.0000000  1.0000000 )
                  (  0.0000000 -1.0000000  0.0000000 )
                  ( -1.0000000  0.0000000  0.0000000 )


      isym = 37     inv. 180 deg rotation - cart. axis [0,1,1]   

 cryst.   s(37) = (    -1          0          0      )
                  (    -1          1          0      )
                  (    -1          0          1      )

 cart.    s(37) = (  1.0000000  0.0000000  0.0000000 )
                  (  0.0000000  0.0000000 -1.0000000 )
                  (  0.0000000 -1.0000000  0.0000000 )


      isym = 38     inv. 180 deg rotation - cart. axis [0,1,-1]  

 cryst.   s(38) = (     1          0          0      )
                  (     0          0          1      )
                  (     0          1          0      )

 cart.    s(38) = (  1.0000000  0.0000000  0.0000000 )
                  (  0.0000000  0.0000000  1.0000000 )
                  (  0.0000000  1.0000000  0.0000000 )


      isym = 39     inv.  90 deg rotation - cart. axis [-1,0,0]  

 cryst.   s(39) = (     0          1         -1      )
                  (     0          0         -1      )
                  (     1          0         -1      )

 cart.    s(39) = ( -1.0000000  0.0000000  0.0000000 )
                  (  0.0000000  0.0000000 -1.0000000 )
                  (  0.0000000  1.0000000  0.0000000 )


      isym = 40     inv.  90 deg rotation - cart. axis [1,0,0]   

 cryst.   s(40) = (     0         -1          1      )
                  (     1         -1          0      )
                  (     0         -1          0      )

 cart.    s(40) = ( -1.0000000  0.0000000  0.0000000 )
                  (  0.0000000  0.0000000  1.0000000 )
                  (  0.0000000 -1.0000000  0.0000000 )


      isym = 41     inv. 120 deg rotation - cart. axis [-1,-1,-1]

 cryst.   s(41) = (     0          0         -1      )
                  (    -1          0          0      )
                  (     0         -1          0      )

 cart.    s(41) = (  0.0000000 -1.0000000  0.0000000 )
                  (  0.0000000  0.0000000 -1.0000000 )
                  ( -1.0000000  0.0000000  0.0000000 )


      isym = 42     inv. 120 deg rotation - cart. axis [-1,1,1]  

 cryst.   s(42) = (    -1          1          0      )
                  (     0          1         -1      )
                  (     0          1          0      )

 cart.    s(42) = (  0.0000000  1.0000000  0.0000000 )
                  (  0.0000000  0.0000000 -1.0000000 )
                  (  1.0000000  0.0000000  0.0000000 )


      isym = 43     inv. 120 deg rotation - cart. axis [1,1,-1]  

 cryst.   s(43) = (     1         -1          0      )
                  (     1          0          0      )
                  (     1          0         -1      )

 cart.    s(43) = (  0.0000000 -1.0000000  0.0000000 )
                  (  0.0000000  0.0000000  1.0000000 )
                  (  1.0000000  0.0000000  0.0000000 )


      isym = 44     inv. 120 deg rotation - cart. axis [1,-1,1]  

 cryst.   s(44) = (     0          0          1      )
                  (     0         -1          1      )
                  (    -1          0          1      )

 cart.    s(44) = (  0.0000000  1.0000000  0.0000000 )
                  (  0.0000000  0.0000000  1.0000000 )
                  ( -1.0000000  0.0000000  0.0000000 )


      isym = 45     inv. 120 deg rotation - cart. axis [1,1,1]   

 cryst.   s(45) = (     0         -1          0      )
                  (     0          0         -1      )
                  (    -1          0          0      )

 cart.    s(45) = (  0.0000000  0.0000000 -1.0000000 )
                  ( -1.0000000  0.0000000  0.0000000 )
                  (  0.0000000 -1.0000000  0.0000000 )


      isym = 46     inv. 120 deg rotation - cart. axis [-1,1,-1] 

 cryst.   s(46) = (     1          0         -1      )
                  (     1         -1          0      )
                  (     1          0          0      )

 cart.    s(46) = (  0.0000000  0.0000000 -1.0000000 )
                  (  1.0000000  0.0000000  0.0000000 )
                  (  0.0000000  1.0000000  0.0000000 )


      isym = 47     inv. 120 deg rotation - cart. axis [1,-1,-1] 

 cryst.   s(47) = (    -1          0          1      )
                  (     0          0          1      )
                  (     0         -1          1      )

 cart.    s(47) = (  0.0000000  0.0000000  1.0000000 )
                  (  1.0000000  0.0000000  0.0000000 )
                  (  0.0000000 -1.0000000  0.0000000 )


      isym = 48     inv. 120 deg rotation - cart. axis [-1,-1,1] 

 cryst.   s(48) = (     0          1          0      )
                  (    -1          1          0      )
                  (     0          1         -1      )

 cart.    s(48) = (  0.0000000  0.0000000  1.0000000 )
                  ( -1.0000000  0.0000000  0.0000000 )
                  (  0.0000000  1.0000000  0.0000000 )


   Cartesian axes

     site n.     atom                  positions (alat units)
         1        Li     tau(   1) = (   0.0000000   0.0000000   0.0000000  )
         2        F      tau(   2) = (   0.7071068   0.7071068   0.7071068  )

   Crystallographic axes

     site n.     atom                  positions (cryst. coord.)
         1        Li     tau(   1) = (  0.0000000  0.0000000  0.0000000  )
         2        F      tau(   2) = (  0.5000000  0.5000000  0.5000000  )

     number of k points=   145
                       cart. coord. in units 2pi/alat
        k(    1) = (   0.0000000   0.0000000   0.0000000), wk =   0.0004883
        k(    2) = (   0.0441942   0.0441942  -0.0441942), wk =   0.0039062
        k(    3) = (   0.0883883   0.0883883  -0.0883883), wk =   0.0039062
        k(    4) = (   0.1325825   0.1325825  -0.1325825), wk =   0.0039062
        k(    5) = (   0.1767767   0.1767767  -0.1767767), wk =   0.0039062
        k(    6) = (   0.2209709   0.2209709  -0.2209709), wk =   0.0039062
        k(    7) = (   0.2651650   0.2651650  -0.2651650), wk =   0.0039062
        k(    8) = (   0.3093592   0.3093592  -0.3093592), wk =   0.0039062
        k(    9) = (  -0.3535534  -0.3535534   0.3535534), wk =   0.0019531
        k(   10) = (   0.0883883   0.0000000   0.0000000), wk =   0.0029297
        k(   11) = (   0.1325825   0.0441942  -0.0441942), wk =   0.0117188
        k(   12) = (   0.1767767   0.0883883  -0.0883883), wk =   0.0117188
        k(   13) = (   0.2209709   0.1325825  -0.1325825), wk =   0.0117188
        k(   14) = (   0.2651650   0.1767767  -0.1767767), wk =   0.0117188
        k(   15) = (   0.3093592   0.2209709  -0.2209709), wk =   0.0117188
        k(   16) = (   0.3535534   0.2651650  -0.2651650), wk =   0.0117188
        k(   17) = (  -0.3093592  -0.3977476   0.3977476), wk =   0.0117188
        k(   18) = (  -0.2651650  -0.3535534   0.3535534), wk =   0.0117188
        k(   19) = (  -0.2209709  -0.3093592   0.3093592), wk =   0.0117188
        k(   20) = (  -0.1767767  -0.2651650   0.2651650), wk =   0.0117188
        k(   21) = (  -0.1325825  -0.2209709   0.2209709), wk =   0.0117188
        k(   22) = (  -0.0883883  -0.1767767   0.1767767), wk =   0.0117188
        k(   23) = (  -0.0441942  -0.1325825   0.1325825), wk =   0.0117188
        k(   24) = (   0.0000000  -0.0883883   0.0883883), wk =   0.0058594
        k(   25) = (   0.1767767   0.0000000   0.0000000), wk =   0.0029297
        k(   26) = (   0.2209709   0.0441942  -0.0441942), wk =   0.0117188
        k(   27) = (   0.2651650   0.0883883  -0.0883883), wk =   0.0117188
        k(   28) = (   0.3093592   0.1325825  -0.1325825), wk =   0.0117188
        k(   29) = (   0.3535534   0.1767767  -0.1767767), wk =   0.0117188
        k(   30) = (   0.3977476   0.2209709  -0.2209709), wk =   0.0117188
        k(   31) = (  -0.2651650  -0.4419417   0.4419417), wk =   0.0117188
        k(   32) = (  -0.2209709  -0.3977476   0.3977476), wk =   0.0117188
        k(   33) = (  -0.1767767  -0.3535534   0.3535534), wk =   0.0117188
        k(   34) = (  -0.1325825  -0.3093592   0.3093592), wk =   0.0117188
        k(   35) = (  -0.0883883  -0.2651650   0.2651650), wk =   0.0117188
        k(   36) = (  -0.0441942  -0.2209709   0.2209709), wk =   0.0117188
        k(   37) = (   0.0000000  -0.1767767   0.1767767), wk =   0.0058594
        k(   38) = (   0.2651650   0.0000000   0.0000000), wk =   0.0029297
        k(   39) = (   0.3093592   0.0441942  -0.0441942), wk =   0.0117188
        k(   40) = (   0.3535534   0.0883883  -0.0883883), wk =   0.0117188
        k(   41) = (   0.3977476   0.1325825  -0.1325825), wk =   0.0117188
        k(   42) = (   0.4419417   0.1767767  -0.1767767), wk =   0.0117188
        k(   43) = (  -0.2209709  -0.4861359   0.4861359), wk =   0.0117188
        k(   44) = (  -0.1767767  -0.4419417   0.4419417), wk =   0.0117188
        k(   45) = (  -0.1325825  -0.3977476   0.3977476), wk =   0.0117188
        k(   46) = (  -0.0883883  -0.3535534   0.3535534), wk =   0.0117188
        k(   47) = (  -0.0441942  -0.3093592   0.3093592), wk =   0.0117188
        k(   48) = (   0.0000000  -0.2651650   0.2651650), wk =   0.0058594
        k(   49) = (   0.3535534   0.0000000   0.0000000), wk =   0.0029297
        k(   50) = (   0.3977476   0.0441942  -0.0441942), wk =   0.0117188
        k(   51) = (   0.4419417   0.0883883  -0.0883883), wk =   0.0117188
        k(   52) = (   0.4861359   0.1325825  -0.1325825), wk =   0.0117188
        k(   53) = (  -0.1767767  -0.5303301   0.5303301), wk =   0.0117188
        k(   54) = (  -0.1325825  -0.4861359   0.4861359), wk =   0.0117188
        k(   55) = (  -0.0883883  -0.4419417   0.4419417), wk =   0.0117188
        k(   56) = (  -0.0441942  -0.3977476   0.3977476), wk =   0.0117188
        k(   57) = (   0.0000000  -0.3535534   0.3535534), wk =   0.0058594
        k(   58) = (   0.4419417   0.0000000   0.0000000), wk =   0.0029297
        k(   59) = (   0.4861359   0.0441942  -0.0441942), wk =   0.0117188
        k(   60) = (   0.5303301   0.0883883  -0.0883883), wk =   0.0117188
        k(   61) = (  -0.1325825  -0.5745243   0.5745243), wk =   0.0117188
        k(   62) = (  -0.0883883  -0.5303301   0.5303301), wk =   0.0117188
        k(   63) = (  -0.0441942  -0.4861359   0.4861359), wk =   0.0117188
        k(   64) = (   0.0000000  -0.4419417   0.4419417), wk =   0.0058594
        k(   65) = (   0.5303301   0.0000000   0.0000000), wk =   0.0029297
        k(   66) = (   0.5745243   0.0441942  -0.0441942), wk =   0.0117188
        k(   67) = (  -0.0883883  -0.6187184   0.6187184), wk =   0.0117188
        k(   68) = (  -0.0441942  -0.5745243   0.5745243), wk =   0.0117188
        k(   69) = (   0.0000000  -0.5303301   0.5303301), wk =   0.0058594
        k(   70) = (   0.6187184   0.0000000   0.0000000), wk =   0.0029297
        k(   71) = (  -0.0441942  -0.6629126   0.6629126), wk =   0.0117188
        k(   72) = (   0.0000000  -0.6187184   0.6187184), wk =   0.0058594
        k(   73) = (  -0.7071068   0.0000000   0.0000000), wk =   0.0014648
        k(   74) = (   0.1767767   0.0883883   0.0000000), wk =   0.0117188
        k(   75) = (   0.2209709   0.1325825  -0.0441942), wk =   0.0234375
        k(   76) = (   0.2651650   0.1767767  -0.0883883), wk =   0.0234375
        k(   77) = (   0.3093592   0.2209709  -0.1325825), wk =   0.0234375
        k(   78) = (   0.3535534   0.2651650  -0.1767767), wk =   0.0234375
        k(   79) = (  -0.3093592  -0.3977476   0.4861359), wk =   0.0234375
        k(   80) = (  -0.2651650  -0.3535534   0.4419417), wk =   0.0117188
        k(   81) = (   0.2651650   0.0883883   0.0000000), wk =   0.0117188
        k(   82) = (   0.3093592   0.1325825  -0.0441942), wk =   0.0234375
        k(   83) = (   0.3535534   0.1767767  -0.0883883), wk =   0.0234375
        k(   84) = (   0.3977476   0.2209709  -0.1325825), wk =   0.0234375
        k(   85) = (  -0.2651650  -0.4419417   0.5303301), wk =   0.0234375
        k(   86) = (  -0.2209709  -0.3977476   0.4861359), wk =   0.0234375
        k(   87) = (  -0.1767767  -0.3535534   0.4419417), wk =   0.0234375
        k(   88) = (  -0.1325825  -0.3093592   0.3977476), wk =   0.0234375
        k(   89) = (  -0.0883883  -0.2651650   0.3535534), wk =   0.0234375
        k(   90) = (  -0.0441942  -0.2209709   0.3093592), wk =   0.0234375
        k(   91) = (   0.0000000  -0.1767767   0.2651650), wk =   0.0117188
        k(   92) = (   0.3535534   0.0883883   0.0000000), wk =   0.0117188
        k(   93) = (   0.3977476   0.1325825  -0.0441942), wk =   0.0234375
        k(   94) = (   0.4419417   0.1767767  -0.0883883), wk =   0.0234375
        k(   95) = (  -0.2209709  -0.4861359   0.5745243), wk =   0.0234375
        k(   96) = (  -0.1767767  -0.4419417   0.5303301), wk =   0.0234375
        k(   97) = (  -0.1325825  -0.3977476   0.4861359), wk =   0.0234375
        k(   98) = (  -0.0883883  -0.3535534   0.4419417), wk =   0.0234375
        k(   99) = (  -0.0441942  -0.3093592   0.3977476), wk =   0.0234375
        k(  100) = (   0.0000000  -0.2651650   0.3535534), wk =   0.0117188
        k(  101) = (   0.4419417   0.0883883   0.0000000), wk =   0.0117188
        k(  102) = (   0.4861359   0.1325825  -0.0441942), wk =   0.0234375
        k(  103) = (  -0.1767767  -0.5303301   0.6187184), wk =   0.0234375
        k(  104) = (  -0.1325825  -0.4861359   0.5745243), wk =   0.0234375
        k(  105) = (  -0.0883883  -0.4419417   0.5303301), wk =   0.0234375
        k(  106) = (  -0.0441942  -0.3977476   0.4861359), wk =   0.0234375
        k(  107) = (   0.0000000  -0.3535534   0.4419417), wk =   0.0117188
        k(  108) = (   0.5303301   0.0883883   0.0000000), wk =   0.0117188
        k(  109) = (  -0.1325825  -0.5745243   0.6629126), wk =   0.0234375
        k(  110) = (  -0.0883883  -0.5303301   0.6187184), wk =   0.0234375
        k(  111) = (  -0.0441942  -0.4861359   0.5745243), wk =   0.0234375
        k(  112) = (   0.0000000  -0.4419417   0.5303301), wk =   0.0117188
        k(  113) = (  -0.0883883  -0.6187184   0.7071068), wk =   0.0117188
        k(  114) = (  -0.0441942  -0.5745243   0.6629126), wk =   0.0234375
        k(  115) = (  -0.0000000  -0.5303301   0.6187184), wk =   0.0117188
        k(  116) = (  -0.7071068   0.0883883   0.0000000), wk =   0.0058594
        k(  117) = (   0.3535534   0.1767767   0.0000000), wk =   0.0117188
        k(  118) = (   0.3977476   0.2209709  -0.0441942), wk =   0.0234375
        k(  119) = (  -0.2651650  -0.4419417   0.6187184), wk =   0.0234375
        k(  120) = (  -0.2209709  -0.3977476   0.5745243), wk =   0.0234375
        k(  121) = (  -0.1767767  -0.3535534   0.5303301), wk =   0.0117188
        k(  122) = (   0.4419417   0.1767767   0.0000000), wk =   0.0117188
        k(  123) = (  -0.2209709  -0.4861359   0.6629126), wk =   0.0234375
        k(  124) = (  -0.1767767  -0.4419417   0.6187184), wk =   0.0234375
        k(  125) = (  -0.1325825  -0.3977476   0.5745243), wk =   0.0234375
        k(  126) = (  -0.0883883  -0.3535534   0.5303301), wk =   0.0234375
        k(  127) = (  -0.0441942  -0.3093592   0.4861359), wk =   0.0234375
        k(  128) = (   0.0000000  -0.2651650   0.4419417), wk =   0.0117188
        k(  129) = (  -0.1767767  -0.5303301   0.7071068), wk =   0.0117188
        k(  130) = (  -0.1325825  -0.4861359   0.6629126), wk =   0.0234375
        k(  131) = (  -0.0883883  -0.4419417   0.6187184), wk =   0.0234375
        k(  132) = (  -0.0441942  -0.3977476   0.5745243), wk =   0.0234375
        k(  133) = (   0.0000000  -0.3535534   0.5303301), wk =   0.0117188
        k(  134) = (  -0.0883883  -0.5303301   0.7071068), wk =   0.0117188
        k(  135) = (  -0.0441942  -0.4861359   0.6629126), wk =   0.0234375
        k(  136) = (   0.0000000  -0.4419417   0.6187184), wk =   0.0117188
        k(  137) = (  -0.7071068   0.1767767   0.0000000), wk =   0.0058594
        k(  138) = (  -0.1767767  -0.4419417   0.7071068), wk =   0.0117188
        k(  139) = (  -0.1325825  -0.3977476   0.6629126), wk =   0.0234375
        k(  140) = (  -0.0883883  -0.3535534   0.6187184), wk =   0.0117188
        k(  141) = (  -0.0883883  -0.4419417   0.7071068), wk =   0.0117188
        k(  142) = (  -0.0441942  -0.3977476   0.6629126), wk =   0.0234375
        k(  143) = (  -0.0000000  -0.3535534   0.6187184), wk =   0.0117188
        k(  144) = (  -0.7071068   0.2651650   0.0000000), wk =   0.0058594
        k(  145) = (  -0.7071068   0.3535534   0.0000000), wk =   0.0029297

                       cryst. coord.
        k(    1) = (   0.0000000   0.0000000   0.0000000), wk =   0.0004883
        k(    2) = (   0.0000000   0.0000000   0.0625000), wk =   0.0039062
        k(    3) = (   0.0000000   0.0000000   0.1250000), wk =   0.0039062
        k(    4) = (   0.0000000   0.0000000   0.1875000), wk =   0.0039062
        k(    5) = (   0.0000000   0.0000000   0.2500000), wk =   0.0039062
        k(    6) = (   0.0000000   0.0000000   0.3125000), wk =   0.0039062
        k(    7) = (   0.0000000   0.0000000   0.3750000), wk =   0.0039062
        k(    8) = (   0.0000000   0.0000000   0.4375000), wk =   0.0039062
        k(    9) = (   0.0000000   0.0000000  -0.5000000), wk =   0.0019531
        k(   10) = (   0.0000000   0.0625000   0.0625000), wk =   0.0029297
        k(   11) = (   0.0000000   0.0625000   0.1250000), wk =   0.0117188
        k(   12) = (   0.0000000   0.0625000   0.1875000), wk =   0.0117188
        k(   13) = (   0.0000000   0.0625000   0.2500000), wk =   0.0117188
        k(   14) = (   0.0000000   0.0625000   0.3125000), wk =   0.0117188
        k(   15) = (   0.0000000   0.0625000   0.3750000), wk =   0.0117188
        k(   16) = (   0.0000000   0.0625000   0.4375000), wk =   0.0117188
        k(   17) = (   0.0000000   0.0625000  -0.5000000), wk =   0.0117188
        k(   18) = (   0.0000000   0.0625000  -0.4375000), wk =   0.0117188
        k(   19) = (   0.0000000   0.0625000  -0.3750000), wk =   0.0117188
        k(   20) = (   0.0000000   0.0625000  -0.3125000), wk =   0.0117188
        k(   21) = (   0.0000000   0.0625000  -0.2500000), wk =   0.0117188
        k(   22) = (   0.0000000   0.0625000  -0.1875000), wk =   0.0117188
        k(   23) = (   0.0000000   0.0625000  -0.1250000), wk =   0.0117188
        k(   24) = (   0.0000000   0.0625000  -0.0625000), wk =   0.0058594
        k(   25) = (   0.0000000   0.1250000   0.1250000), wk =   0.0029297
        k(   26) = (   0.0000000   0.1250000   0.1875000), wk =   0.0117188
        k(   27) = (   0.0000000   0.1250000   0.2500000), wk =   0.0117188
        k(   28) = (   0.0000000   0.1250000   0.3125000), wk =   0.0117188
        k(   29) = (   0.0000000   0.1250000   0.3750000), wk =   0.0117188
        k(   30) = (   0.0000000   0.1250000   0.4375000), wk =   0.0117188
        k(   31) = (   0.0000000   0.1250000  -0.5000000), wk =   0.0117188
        k(   32) = (   0.0000000   0.1250000  -0.4375000), wk =   0.0117188
        k(   33) = (   0.0000000   0.1250000  -0.3750000), wk =   0.0117188
        k(   34) = (   0.0000000   0.1250000  -0.3125000), wk =   0.0117188
        k(   35) = (   0.0000000   0.1250000  -0.2500000), wk =   0.0117188
        k(   36) = (   0.0000000   0.1250000  -0.1875000), wk =   0.0117188
        k(   37) = (   0.0000000   0.1250000  -0.1250000), wk =   0.0058594
        k(   38) = (   0.0000000   0.1875000   0.1875000), wk =   0.0029297
        k(   39) = (   0.0000000   0.1875000   0.2500000), wk =   0.0117188
        k(   40) = (   0.0000000   0.1875000   0.3125000), wk =   0.0117188
        k(   41) = (   0.0000000   0.1875000   0.3750000), wk =   0.0117188
        k(   42) = (   0.0000000   0.1875000   0.4375000), wk =   0.0117188
        k(   43) = (   0.0000000   0.1875000  -0.5000000), wk =   0.0117188
        k(   44) = (   0.0000000   0.1875000  -0.4375000), wk =   0.0117188
        k(   45) = (   0.0000000   0.1875000  -0.3750000), wk =   0.0117188
        k(   46) = (   0.0000000   0.1875000  -0.3125000), wk =   0.0117188
        k(   47) = (   0.0000000   0.1875000  -0.2500000), wk =   0.0117188
        k(   48) = (   0.0000000   0.1875000  -0.1875000), wk =   0.0058594
        k(   49) = (   0.0000000   0.2500000   0.2500000), wk =   0.0029297
        k(   50) = (   0.0000000   0.2500000   0.3125000), wk =   0.0117188
        k(   51) = (   0.0000000   0.2500000   0.3750000), wk =   0.0117188
        k(   52) = (   0.0000000   0.2500000   0.4375000), wk =   0.0117188
        k(   53) = (   0.0000000   0.2500000  -0.5000000), wk =   0.0117188
        k(   54) = (   0.0000000   0.2500000  -0.4375000), wk =   0.0117188
        k(   55) = (   0.0000000   0.2500000  -0.3750000), wk =   0.0117188
        k(   56) = (   0.0000000   0.2500000  -0.3125000), wk =   0.0117188
        k(   57) = (   0.0000000   0.2500000  -0.2500000), wk =   0.0058594
        k(   58) = (   0.0000000   0.3125000   0.3125000), wk =   0.0029297
        k(   59) = (   0.0000000   0.3125000   0.3750000), wk =   0.0117188
        k(   60) = (   0.0000000   0.3125000   0.4375000), wk =   0.0117188
        k(   61) = (   0.0000000   0.3125000  -0.5000000), wk =   0.0117188
        k(   62) = (   0.0000000   0.3125000  -0.4375000), wk =   0.0117188
        k(   63) = (   0.0000000   0.3125000  -0.3750000), wk =   0.0117188
        k(   64) = (   0.0000000   0.3125000  -0.3125000), wk =   0.0058594
        k(   65) = (   0.0000000   0.3750000   0.3750000), wk =   0.0029297
        k(   66) = (   0.0000000   0.3750000   0.4375000), wk =   0.0117188
        k(   67) = (   0.0000000   0.3750000  -0.5000000), wk =   0.0117188
        k(   68) = (   0.0000000   0.3750000  -0.4375000), wk =   0.0117188
        k(   69) = (   0.0000000   0.3750000  -0.3750000), wk =   0.0058594
        k(   70) = (   0.0000000   0.4375000   0.4375000), wk =   0.0029297
        k(   71) = (   0.0000000   0.4375000  -0.5000000), wk =   0.0117188
        k(   72) = (   0.0000000   0.4375000  -0.4375000), wk =   0.0058594
        k(   73) = (   0.0000000  -0.5000000  -0.5000000), wk =   0.0014648
        k(   74) = (   0.0625000   0.1250000   0.1875000), wk =   0.0117188
        k(   75) = (   0.0625000   0.1250000   0.2500000), wk =   0.0234375
        k(   76) = (   0.0625000   0.1250000   0.3125000), wk =   0.0234375
        k(   77) = (   0.0625000   0.1250000   0.3750000), wk =   0.0234375
        k(   78) = (   0.0625000   0.1250000   0.4375000), wk =   0.0234375
        k(   79) = (   0.0625000   0.1250000  -0.5000000), wk =   0.0234375
        k(   80) = (   0.0625000   0.1250000  -0.4375000), wk =   0.0117188
        k(   81) = (   0.0625000   0.1875000   0.2500000), wk =   0.0117188
        k(   82) = (   0.0625000   0.1875000   0.3125000), wk =   0.0234375
        k(   83) = (   0.0625000   0.1875000   0.3750000), wk =   0.0234375
        k(   84) = (   0.0625000   0.1875000   0.4375000), wk =   0.0234375
        k(   85) = (   0.0625000   0.1875000  -0.5000000), wk =   0.0234375
        k(   86) = (   0.0625000   0.1875000  -0.4375000), wk =   0.0234375
        k(   87) = (   0.0625000   0.1875000  -0.3750000), wk =   0.0234375
        k(   88) = (   0.0625000   0.1875000  -0.3125000), wk =   0.0234375
        k(   89) = (   0.0625000   0.1875000  -0.2500000), wk =   0.0234375
        k(   90) = (   0.0625000   0.1875000  -0.1875000), wk =   0.0234375
        k(   91) = (   0.0625000   0.1875000  -0.1250000), wk =   0.0117188
        k(   92) = (   0.0625000   0.2500000   0.3125000), wk =   0.0117188
        k(   93) = (   0.0625000   0.2500000   0.3750000), wk =   0.0234375
        k(   94) = (   0.0625000   0.2500000   0.4375000), wk =   0.0234375
        k(   95) = (   0.0625000   0.2500000  -0.5000000), wk =   0.0234375
        k(   96) = (   0.0625000   0.2500000  -0.4375000), wk =   0.0234375
        k(   97) = (   0.0625000   0.2500000  -0.3750000), wk =   0.0234375
        k(   98) = (   0.0625000   0.2500000  -0.3125000), wk =   0.0234375
        k(   99) = (   0.0625000   0.2500000  -0.2500000), wk =   0.0234375
        k(  100) = (   0.0625000   0.2500000  -0.1875000), wk =   0.0117188
        k(  101) = (   0.0625000   0.3125000   0.3750000), wk =   0.0117188
        k(  102) = (   0.0625000   0.3125000   0.4375000), wk =   0.0234375
        k(  103) = (   0.0625000   0.3125000  -0.5000000), wk =   0.0234375
        k(  104) = (   0.0625000   0.3125000  -0.4375000), wk =   0.0234375
        k(  105) = (   0.0625000   0.3125000  -0.3750000), wk =   0.0234375
        k(  106) = (   0.0625000   0.3125000  -0.3125000), wk =   0.0234375
        k(  107) = (   0.0625000   0.3125000  -0.2500000), wk =   0.0117188
        k(  108) = (   0.0625000   0.3750000   0.4375000), wk =   0.0117188
        k(  109) = (   0.0625000   0.3750000  -0.5000000), wk =   0.0234375
        k(  110) = (   0.0625000   0.3750000  -0.4375000), wk =   0.0234375
        k(  111) = (   0.0625000   0.3750000  -0.3750000), wk =   0.0234375
        k(  112) = (   0.0625000   0.3750000  -0.3125000), wk =   0.0117188
        k(  113) = (   0.0625000   0.4375000  -0.5000000), wk =   0.0117188
        k(  114) = (   0.0625000   0.4375000  -0.4375000), wk =   0.0234375
        k(  115) = (   0.0625000   0.4375000  -0.3750000), wk =   0.0117188
        k(  116) = (   0.0625000  -0.5000000  -0.4375000), wk =   0.0058594
        k(  117) = (   0.1250000   0.2500000   0.3750000), wk =   0.0117188
        k(  118) = (   0.1250000   0.2500000   0.4375000), wk =   0.0234375
        k(  119) = (   0.1250000   0.2500000  -0.5000000), wk =   0.0234375
        k(  120) = (   0.1250000   0.2500000  -0.4375000), wk =   0.0234375
        k(  121) = (   0.1250000   0.2500000  -0.3750000), wk =   0.0117188
        k(  122) = (   0.1250000   0.3125000   0.4375000), wk =   0.0117188
        k(  123) = (   0.1250000   0.3125000  -0.5000000), wk =   0.0234375
        k(  124) = (   0.1250000   0.3125000  -0.4375000), wk =   0.0234375
        k(  125) = (   0.1250000   0.3125000  -0.3750000), wk =   0.0234375
        k(  126) = (   0.1250000   0.3125000  -0.3125000), wk =   0.0234375
        k(  127) = (   0.1250000   0.3125000  -0.2500000), wk =   0.0234375
        k(  128) = (   0.1250000   0.3125000  -0.1875000), wk =   0.0117188
        k(  129) = (   0.1250000   0.3750000  -0.5000000), wk =   0.0117188
        k(  130) = (   0.1250000   0.3750000  -0.4375000), wk =   0.0234375
        k(  131) = (   0.1250000   0.3750000  -0.3750000), wk =   0.0234375
        k(  132) = (   0.1250000   0.3750000  -0.3125000), wk =   0.0234375
        k(  133) = (   0.1250000   0.3750000  -0.2500000), wk =   0.0117188
        k(  134) = (   0.1250000   0.4375000  -0.4375000), wk =   0.0117188
        k(  135) = (   0.1250000   0.4375000  -0.3750000), wk =   0.0234375
        k(  136) = (   0.1250000   0.4375000  -0.3125000), wk =   0.0117188
        k(  137) = (   0.1250000  -0.5000000  -0.3750000), wk =   0.0058594
        k(  138) = (   0.1875000   0.3750000  -0.4375000), wk =   0.0117188
        k(  139) = (   0.1875000   0.3750000  -0.3750000), wk =   0.0234375
        k(  140) = (   0.1875000   0.3750000  -0.3125000), wk =   0.0117188
        k(  141) = (   0.1875000   0.4375000  -0.3750000), wk =   0.0117188
        k(  142) = (   0.1875000   0.4375000  -0.3125000), wk =   0.0234375
        k(  143) = (   0.1875000   0.4375000  -0.2500000), wk =   0.0117188
        k(  144) = (   0.1875000  -0.5000000  -0.3125000), wk =   0.0058594
        k(  145) = (   0.2500000  -0.5000000  -0.2500000), wk =   0.0029297

     Dense  grid:     9185 G-vectors     FFT dimensions: (  30,  30,  30)

     Dynamical RAM for                 wfc:       0.09 MB

     Dynamical RAM for     wfc (w. buffer):       0.09 MB

     Dynamical RAM for           str. fact:       0.04 MB

     Dynamical RAM for           local pot:       0.00 MB

     Dynamical RAM for          nlocal pot:       0.03 MB

     Dynamical RAM for                qrad:       0.77 MB

     Dynamical RAM for          rho,v,vnew:       0.13 MB

     Dynamical RAM for           G-vectors:       0.07 MB

     Dynamical RAM for          h,s,v(r/c):       1.17 MB

     Dynamical RAM for          <psi|beta>:       0.01 MB

     Dynamical RAM for                 psi:       0.35 MB

     Dynamical RAM for                hpsi:       0.35 MB

     Dynamical RAM for      wfcinit/wfcrot:       0.21 MB

     Estimated static dynamical RAM per process >       1.32 MB

     Estimated max dynamical RAM per process >       3.20 MB

     Estimated total dynamical RAM >     102.35 MB

     The potential is recalculated from file :
     ./outs/LiF.save/charge-density

     Starting wfcs are random

     Band Structure Calculation
     Davidson diagonalization with overlap

     Computing kpt #:     1  of    37 on this pool
     total cpu time spent up to now is        0.8 secs

     Computing kpt #:     2  of    37 on this pool
     total cpu time spent up to now is        1.0 secs

     Computing kpt #:     3  of    37 on this pool
     total cpu time spent up to now is        1.2 secs

     Computing kpt #:     4  of    37 on this pool
     total cpu time spent up to now is        1.4 secs

     Computing kpt #:     5  of    37 on this pool
     total cpu time spent up to now is        1.5 secs

     Computing kpt #:     6  of    37 on this pool
     total cpu time spent up to now is        1.8 secs

     Computing kpt #:     7  of    37 on this pool
     total cpu time spent up to now is        2.0 secs

     Computing kpt #:     8  of    37 on this pool
     total cpu time spent up to now is        2.1 secs

     Computing kpt #:     9  of    37 on this pool
     total cpu time spent up to now is        2.3 secs

     Computing kpt #:    10  of    37 on this pool
     total cpu time spent up to now is        2.5 secs

     Computing kpt #:    11  of    37 on this pool
     total cpu time spent up to now is        2.8 secs

     Computing kpt #:    12  of    37 on this pool
     total cpu time spent up to now is        2.9 secs

     Computing kpt #:    13  of    37 on this pool
     total cpu time spent up to now is        3.1 secs

     Computing kpt #:    14  of    37 on this pool
     total cpu time spent up to now is        3.4 secs

     Computing kpt #:    15  of    37 on this pool
     total cpu time spent up to now is        3.5 secs

     Computing kpt #:    16  of    37 on this pool
     total cpu time spent up to now is        3.7 secs

     Computing kpt #:    17  of    37 on this pool
     total cpu time spent up to now is        3.8 secs

     Computing kpt #:    18  of    37 on this pool
     total cpu time spent up to now is        4.0 secs

     Computing kpt #:    19  of    37 on this pool
     total cpu time spent up to now is        4.2 secs

     Computing kpt #:    20  of    37 on this pool
     total cpu time spent up to now is        4.4 secs

     Computing kpt #:    21  of    37 on this pool
     total cpu time spent up to now is        4.6 secs

     Computing kpt #:    22  of    37 on this pool
     total cpu time spent up to now is        4.7 secs

     Computing kpt #:    23  of    37 on this pool
     total cpu time spent up to now is        4.9 secs

     Computing kpt #:    24  of    37 on this pool
     total cpu time spent up to now is        5.1 secs

     Computing kpt #:    25  of    37 on this pool
     total cpu time spent up to now is        5.3 secs

     Computing kpt #:    26  of    37 on this pool
     total cpu time spent up to now is        5.5 secs

     Computing kpt #:    27  of    37 on this pool
     total cpu time spent up to now is        5.7 secs

     Computing kpt #:    28  of    37 on this pool
     total cpu time spent up to now is        5.9 secs

     Computing kpt #:    29  of    37 on this pool
     total cpu time spent up to now is        6.2 secs

     Computing kpt #:    30  of    37 on this pool
     total cpu time spent up to now is        6.4 secs

     Computing kpt #:    31  of    37 on this pool
     total cpu time spent up to now is        6.5 secs

     Computing kpt #:    32  of    37 on this pool
     total cpu time spent up to now is        6.7 secs

     Computing kpt #:    33  of    37 on this pool
     total cpu time spent up to now is        6.9 secs

     Computing kpt #:    34  of    37 on this pool
     total cpu time spent up to now is        7.1 secs

     Computing kpt #:    35  of    37 on this pool
     total cpu time spent up to now is        7.3 secs

     Computing kpt #:    36  of    37 on this pool
     total cpu time spent up to now is        7.5 secs

     Computing kpt #:    37  of    37 on this pool
     total cpu time spent up to now is        7.6 secs

     ethr =  1.00E-13,  avg # of iterations = 19.3

     total cpu time spent up to now is        7.6 secs

     End of band structure calculation

          k = 0.0000 0.0000 0.0000 (  1139 PWs)   bands (ev):

   -40.3264 -19.1560   0.6155   0.6155   0.6155   9.3856  24.0810  24.0810
    24.0810  24.6585  24.6585  24.6585  27.5064  31.6758  31.6758  44.3955
    44.3955  44.3955  47.8840  64.4517  64.4517  64.4517  65.9109  67.8040
    67.8040  68.4382  68.4382  68.4382  68.4924  68.4924  68.4924  84.1547
    84.1547  89.9423  89.9423  89.9423  93.5906  93.5906  93.5906  95.1462

     occupation numbers 
     1.0000   1.0000   1.0000   1.0000   1.0000   0.0000   0.0000   0.0000
     0.0000   0.0000   0.0000   0.0000   0.0000   0.0000   0.0000   0.0000
     0.0000   0.0000   0.0000   0.0000   0.0000   0.0000   0.0000   0.0000
     0.0000   0.0000   0.0000   0.0000   0.0000   0.0000   0.0000   0.0000
     0.0000   0.0000   0.0000   0.0000   0.0000   0.0000   0.0000   0.0000

          k = 0.0442 0.0442-0.0442 (  1148 PWs)   bands (ev):

   -40.3245 -19.1417   0.5045   0.6068   0.6068   9.5044  22.6508  23.4628
    23.4628  25.1962  25.1962  25.2856  28.7313  31.9985  31.9985  43.8922
    44.4711  44.4711  47.9921  62.6960  62.6960  63.9023  66.0053  66.5678
    66.5678  68.2802  68.2802  68.5970  69.3927  71.8070  71.8070  83.8363
    83.8363  88.2868  88.7486  88.7486  91.4767  91.4767  92.3093  93.4151

     occupation numbers 
     1.0000   1.0000   1.0000   1.0000   1.0000   0.0000   0.0000   0.0000
     0.0000   0.0000   0.0000   0.0000   0.0000   0.0000   0.0000   0.0000
     0.0000   0.0000   0.0000   0.0000   0.0000   0.0000   0.0000   0.0000
     0.0000   0.0000   0.0000   0.0000   0.0000   0.0000   0.0000   0.0000
     0.0000   0.0000   0.0000   0.0000   0.0000   0.0000   0.0000   0.0000

          k = 0.0884 0.0884-0.0884 (  1143 PWs)   bands (ev):

   -40.3192 -19.1005   0.2023   0.5827   0.5827   9.8243  20.8990  22.5672
    22.5672  25.7748  25.9391  25.9391  31.2474  32.8509  32.8509  42.6589
    44.7027  44.7027  48.1239  59.4514  59.4514  62.9736  66.2813  66.6281
    66.6281  67.8118  67.8118  68.9107  71.4049  75.9202  75.9202  82.5028
    82.5028  85.5347  86.4115  86.4115  88.3372  89.1602  89.1602  89.2687

     occupation numbers 
     1.0000   1.0000   1.0000   1.0000   1.0000   0.0000   0.0000   0.0000
     0.0000   0.0000   0.0000   0.0000   0.0000   0.0000   0.0000   0.0000
     0.0000   0.0000   0.0000   0.0000   0.0000   0.0000   0.0000   0.0000
     0.0000   0.0000   0.0000   0.0000   0.0000   0.0000   0.0000   0.0000
     0.0000   0.0000   0.0000   0.0000   0.0000   0.0000   0.0000   0.0000

          k = 0.1326 0.1326-0.1326 (  1143 PWs)   bands (ev):

   -40.3113 -19.0378  -0.2195   0.5471   0.5471  10.2525  19.3972  21.6693
    21.6693  26.3699  26.7779  26.7779  33.9831  33.9831  34.1831  41.1133
    45.0885  45.0885  48.0768  56.3133  56.3133  62.2618  66.4957  66.9577
    66.9577  67.1721  67.1721  69.4326  73.5875  78.7531  78.7531  81.2825
    81.2825  83.0899  83.2216  83.8056  83.8056  86.4310  88.4238  88.4238

     occupation numbers 
     1.0000   1.0000   1.0000   1.0000   1.0000   0.0000   0.0000   0.0000
     0.0000   0.0000   0.0000   0.0000   0.0000   0.0000   0.0000   0.0000
     0.0000   0.0000   0.0000   0.0000   0.0000   0.0000   0.0000   0.0000
     0.0000   0.0000   0.0000   0.0000   0.0000   0.0000   0.0000   0.0000
     0.0000   0.0000   0.0000   0.0000   0.0000   0.0000   0.0000   0.0000

          k = 0.1768 0.1768-0.1768 (  1131 PWs)   bands (ev):

   -40.3020 -18.9621  -0.6806   0.5059   0.5059  10.6766  18.2502  20.8549
    20.8549  27.1246  27.7388  27.7388  35.1382  35.1382  36.9387  39.9157
    45.5805  45.5805  47.8263  53.6438  53.6438  61.8983  66.0054  66.0054
    66.2787  67.7586  67.7586  70.1613  74.8904  76.2605  76.2605  78.4154
    81.3029  81.3029  82.3807  83.8058  84.5304  84.5304  88.8919  88.8919

     occupation numbers 
     1.0000   1.0000   1.0000   1.0000   1.0000   0.0000   0.0000   0.0000
     0.0000   0.0000   0.0000   0.0000   0.0000   0.0000   0.0000   0.0000
     0.0000   0.0000   0.0000   0.0000   0.0000   0.0000   0.0000   0.0000
     0.0000   0.0000   0.0000   0.0000   0.0000   0.0000   0.0000   0.0000
     0.0000   0.0000   0.0000   0.0000   0.0000   0.0000   0.0000   0.0000

          k = 0.2210 0.2210-0.2210 (  1149 PWs)   bands (ev):

   -40.2926 -18.8844  -1.1128   0.4654   0.4654  10.9979  17.4897  20.1795
    20.1795  28.0165  28.7906  28.7906  36.0947  36.0947  36.8294  41.8393
    45.9438  45.9438  47.4382  51.8345  51.8345  61.7290  64.6489  64.6489
    65.2693  68.6107  68.6107  71.0927  73.5840  73.5840  73.6757  75.4870
    79.0550  79.0550  81.3985  83.8648  85.9901  85.9901  91.0166  91.0166

     occupation numbers 
     1.0000   1.0000   1.0000   1.0000   1.0000   0.0000   0.0000   0.0000
     0.0000   0.0000   0.0000   0.0000   0.0000   0.0000   0.0000   0.0000
     0.0000   0.0000   0.0000   0.0000   0.0000   0.0000   0.0000   0.0000
     0.0000   0.0000   0.0000   0.0000   0.0000   0.0000   0.0000   0.0000
     0.0000   0.0000   0.0000   0.0000   0.0000   0.0000   0.0000   0.0000

          k = 0.2652 0.2652-0.2652 (  1143 PWs)   bands (ev):

   -40.2847 -18.8169  -1.4606   0.4321   0.4321  11.1737  17.0824  19.6771
    19.6771  28.9953  29.8316  29.8316  35.3795  36.7012  36.7012  45.4152
    45.7434  45.7434  47.0474  51.4062  51.4062  60.7005  62.9876  62.9876
    64.1987  69.5989  69.5989  70.8580  71.6520  71.6520  72.2155  74.7514
    77.0465  77.0465  79.2214  86.0845  86.0845  86.3167  90.5210  90.5210

     occupation numbers 
     1.0000   1.0000   1.0000   1.0000   1.0000   0.0000   0.0000   0.0000
     0.0000   0.0000   0.0000   0.0000   0.0000   0.0000   0.0000   0.0000
     0.0000   0.0000   0.0000   0.0000   0.0000   0.0000   0.0000   0.0000
     0.0000   0.0000   0.0000   0.0000   0.0000   0.0000   0.0000   0.0000
     0.0000   0.0000   0.0000   0.0000   0.0000   0.0000   0.0000   0.0000

          k = 0.3094 0.3094-0.3094 (  1143 PWs)   bands (ev):

   -40.2794 -18.7709  -1.6853   0.4102   0.4102  11.2350  16.9211  19.3683
    19.3683  29.9427  30.6608  30.6608  34.0679  36.9420  36.9420  45.1880
    45.1880  46.6888  49.2980  52.0164  52.0164  57.7114  61.3770  61.3770
    64.4671  68.7488  70.2984  70.2984  70.8875  70.8875  73.4782  74.4526
    75.4061  75.4061  77.3260  85.9985  85.9985  88.3196  90.1307  90.1307

     occupation numbers 
     1.0000   1.0000   1.0000   1.0000   1.0000   0.0000   0.0000   0.0000
     0.0000   0.0000   0.0000   0.0000   0.0000   0.0000   0.0000   0.0000
     0.0000   0.0000   0.0000   0.0000   0.0000   0.0000   0.0000   0.0000
     0.0000   0.0000   0.0000   0.0000   0.0000   0.0000   0.0000   0.0000
     0.0000   0.0000   0.0000   0.0000   0.0000   0.0000   0.0000   0.0000

          k =-0.3536-0.3536 0.3536 (  1158 PWs)   bands (ev):

   -40.2776 -18.7546  -1.7631   0.4024   0.4024  11.2454  16.8837  19.2642
    19.2642  30.4379  30.9912  30.9912  33.4445  36.9785  36.9785  44.9274
    44.9274  46.5815  52.1884  52.4588  52.4588  54.9481  60.6399  60.6399
    64.9192  67.7990  70.0879  70.0879  71.3202  71.3202  74.3685  74.3776
    74.6349  74.6349  76.2157  85.9561  85.9561  89.0815  89.9955  89.9955

     occupation numbers 
     1.0000   1.0000   1.0000   1.0000   1.0000   0.0000   0.0000   0.0000
     0.0000   0.0000   0.0000   0.0000   0.0000   0.0000   0.0000   0.0000
     0.0000   0.0000   0.0000   0.0000   0.0000   0.0000   0.0000   0.0000
     0.0000   0.0000   0.0000   0.0000   0.0000   0.0000   0.0000   0.0000
     0.0000   0.0000   0.0000   0.0000   0.0000   0.0000   0.0000   0.0000

          k = 0.0884 0.0000 0.0000 (  1147 PWs)   bands (ev):

   -40.3239 -19.1368   0.5160   0.5788   0.5788   9.5472  23.0036  23.0036
    23.5117  23.5570  26.0757  26.0757  28.8889  31.8104  32.3474  44.0787
    44.3202  44.3202  48.0326  62.5206  62.5206  63.8212  64.5747  65.9676
    66.7895  68.4400  68.4400  69.5239  70.7910  70.7910  72.7433  83.8176
    83.8582  87.0746  87.0746  88.9331  92.3736  92.6556  92.6556  93.5501

     occupation numbers 
     1.0000   1.0000   1.0000   1.0000   1.0000   0.0000   0.0000   0.0000
     0.0000   0.0000   0.0000   0.0000   0.0000   0.0000   0.0000   0.0000
     0.0000   0.0000   0.0000   0.0000   0.0000   0.0000   0.0000   0.0000
     0.0000   0.0000   0.0000   0.0000   0.0000   0.0000   0.0000   0.0000
     0.0000   0.0000   0.0000   0.0000   0.0000   0.0000   0.0000   0.0000

          k = 0.1326 0.0442-0.0442 (  1145 PWs)   bands (ev):

   -40.3198 -19.1042   0.2872   0.5366   0.5681   9.8089  21.4144  22.3760
    22.7643  23.8947  26.7812  26.9386  30.7463  32.2812  33.1155  43.1410
    44.3122  44.6565  48.1571  59.5765  60.5717  63.4456  63.7674  65.9063
    66.3087  68.3108  69.0721  70.2017  71.6272  73.9859  76.2304  82.8396
    82.9510  84.6042  84.9145  87.0108  89.6014  90.2196  90.2544  91.6361

     occupation numbers 
     1.0000   1.0000   1.0000   1.0000   1.0000   0.0000   0.0000   0.0000
     0.0000   0.0000   0.0000   0.0000   0.0000   0.0000   0.0000   0.0000
     0.0000   0.0000   0.0000   0.0000   0.0000   0.0000   0.0000   0.0000
     0.0000   0.0000   0.0000   0.0000   0.0000   0.0000   0.0000   0.0000
     0.0000   0.0000   0.0000   0.0000   0.0000   0.0000   0.0000   0.0000

          k = 0.1768 0.0884-0.0884 (  1140 PWs)   bands (ev):

   -40.3127 -19.0481  -0.0947   0.4873   0.5472  10.2153  19.8153  21.6820
    21.8686  24.6105  27.3955  27.7305  33.3092  33.4433  34.0806  41.6955
    44.4171  45.2729  48.1745  56.3688  57.8910  62.5464  63.7703  65.7662
    66.4938  67.9673  68.8069  72.1143  72.4150  77.4779  79.6337  80.4104
    80.8835  83.1069  83.6197  84.5045  85.1075  87.6253  87.8941  89.4624

     occupation numbers 
     1.0000   1.0000   1.0000   1.0000   1.0000   0.0000   0.0000   0.0000
     0.0000   0.0000   0.0000   0.0000   0.0000   0.0000   0.0000   0.0000
     0.0000   0.0000   0.0000   0.0000   0.0000   0.0000   0.0000   0.0000
     0.0000   0.0000   0.0000   0.0000   0.0000   0.0000   0.0000   0.0000
     0.0000   0.0000   0.0000   0.0000   0.0000   0.0000   0.0000   0.0000

          k = 0.2210 0.1326-0.1326 (  1135 PWs)   bands (ev):

   -40.3039 -18.9759  -0.5404   0.4384   0.5076  10.6604  18.5404  20.9867
    21.0239  25.4816  28.1473  28.5512  34.6059  34.9682  36.4076  40.2657
    44.5756  46.0579  48.0673  53.6519  55.1347  61.7341  64.1689  65.4496
    66.4793  67.4914  68.6541  72.7302  73.9756  76.5182  77.1209  80.1102
    80.4906  81.6457  82.2245  83.0548  84.6879  86.6431  87.0590  88.2591

     occupation numbers 
     1.0000   1.0000   1.0000   1.0000   1.0000   0.0000   0.0000   0.0000
     0.0000   0.0000   0.0000   0.0000   0.0000   0.0000   0.0000   0.0000
     0.0000   0.0000   0.0000   0.0000   0.0000   0.0000   0.0000   0.0000
     0.0000   0.0000   0.0000   0.0000   0.0000   0.0000   0.0000   0.0000
     0.0000   0.0000   0.0000   0.0000   0.0000   0.0000   0.0000   0.0000

          k = 0.2652 0.1768-0.1768 (  1133 PWs)   bands (ev):

   -40.2946 -18.8980  -0.9785   0.3980   0.4558  11.0376  17.6402  20.3134
    20.3560  26.4863  29.0371  29.4345  35.6222  35.8569  37.6146  40.9305
    44.6580  46.6310  48.1078  51.7560  52.7979  61.2194  64.3411  64.4788
    65.9975  67.1404  68.7692  72.4947  73.5122  74.1114  75.7619  76.1372
    78.2418  80.0340  82.4008  84.4789  84.9693  86.0657  87.7778  90.1802

     occupation numbers 
     1.0000   1.0000   1.0000   1.0000   1.0000   0.0000   0.0000   0.0000
     0.0000   0.0000   0.0000   0.0000   0.0000   0.0000   0.0000   0.0000
     0.0000   0.0000   0.0000   0.0000   0.0000   0.0000   0.0000   0.0000
     0.0000   0.0000   0.0000   0.0000   0.0000   0.0000   0.0000   0.0000
     0.0000   0.0000   0.0000   0.0000   0.0000   0.0000   0.0000   0.0000

          k = 0.3094 0.2210-0.2210 (  1138 PWs)   bands (ev):

   -40.2862 -18.8262  -1.3505   0.3718   0.3999  11.2775  17.1083  19.7770
    19.8434  27.5836  29.9715  30.3042  35.5205  36.7638  37.0050  44.2473
    44.5257  46.4007  48.3123  51.0518  51.6535  60.6636  62.5787  63.7325
    65.0178  67.3709  68.8050  70.7450  71.5826  73.4348  74.3891  75.0221
    76.2356  78.2233  82.5913  83.4884  85.7958  85.9121  89.0275  90.2752

     occupation numbers 
     1.0000   1.0000   1.0000   1.0000   1.0000   0.0000   0.0000   0.0000
     0.0000   0.0000   0.0000   0.0000   0.0000   0.0000   0.0000   0.0000
     0.0000   0.0000   0.0000   0.0000   0.0000   0.0000   0.0000   0.0000
     0.0000   0.0000   0.0000   0.0000   0.0000   0.0000   0.0000   0.0000
     0.0000   0.0000   0.0000   0.0000   0.0000   0.0000   0.0000   0.0000

          k = 0.3536 0.2652-0.2652 (  1139 PWs)   bands (ev):

   -40.2801 -18.7724  -1.6130   0.3487   0.3632  11.3818  16.8644  19.4336
    19.4871  28.7118  30.7039  30.9718  34.6645  37.0024  37.1277  44.4211
    45.4224  47.8421  48.1806  51.4620  52.1588  58.8444  60.6731  62.3598
    64.0781  68.1363  68.4121  69.8713  70.3122  71.9919  74.1210  74.4794
    75.8667  76.7794  80.8305  83.6609  85.4797  87.1215  89.9867  90.2801

     occupation numbers 
     1.0000   1.0000   1.0000   1.0000   1.0000   0.0000   0.0000   0.0000
     0.0000   0.0000   0.0000   0.0000   0.0000   0.0000   0.0000   0.0000
     0.0000   0.0000   0.0000   0.0000   0.0000   0.0000   0.0000   0.0000
     0.0000   0.0000   0.0000   0.0000   0.0000   0.0000   0.0000   0.0000
     0.0000   0.0000   0.0000   0.0000   0.0000   0.0000   0.0000   0.0000

          k =-0.3094-0.3977 0.3977 (  1143 PWs)   bands (ev):

   -40.2771 -18.7459  -1.7375   0.3096   0.3733  11.4078  16.7858  19.2873
    19.3126  29.7649  30.7582  31.1596  34.2258  37.0764  37.1324  44.5343
    44.7799  47.4249  51.6736  52.2662  52.7039  55.5969  60.1678  60.9706
    63.7401  68.2815  68.8646  69.0627  70.0360  71.6268  73.1190  74.2462
    76.0291  76.6829  79.6226  83.7356  85.2386  87.2178  90.4186  91.3164

     occupation numbers 
     1.0000   1.0000   1.0000   1.0000   1.0000   0.0000   0.0000   0.0000
     0.0000   0.0000   0.0000   0.0000   0.0000   0.0000   0.0000   0.0000
     0.0000   0.0000   0.0000   0.0000   0.0000   0.0000   0.0000   0.0000
     0.0000   0.0000   0.0000   0.0000   0.0000   0.0000   0.0000   0.0000
     0.0000   0.0000   0.0000   0.0000   0.0000   0.0000   0.0000   0.0000

          k =-0.2652-0.3536 0.3536 (  1141 PWs)   bands (ev):

   -40.2777 -18.7515  -1.7108   0.2885   0.4003  11.4018  16.7932  19.3324
    19.3354  30.0514  30.5142  30.6954  34.4460  36.9337  37.3074  43.9907
    45.6758  47.2867  50.6343  52.0656  52.4824  56.6400  60.5965  60.9424
    63.9069  68.2078  68.3533  69.7763  70.4587  71.2102  73.1191  74.3104
    76.3073  76.4652  79.9521  83.9642  85.1538  86.8680  90.6587  91.4086

     occupation numbers 
     1.0000   1.0000   1.0000   1.0000   1.0000   0.0000   0.0000   0.0000
     0.0000   0.0000   0.0000   0.0000   0.0000   0.0000   0.0000   0.0000
     0.0000   0.0000   0.0000   0.0000   0.0000   0.0000   0.0000   0.0000
     0.0000   0.0000   0.0000   0.0000   0.0000   0.0000   0.0000   0.0000
     0.0000   0.0000   0.0000   0.0000   0.0000   0.0000   0.0000   0.0000

          k =-0.2210-0.3094 0.3094 (  1138 PWs)   bands (ev):

   -40.2818 -18.7882  -1.5360   0.2886   0.4405  11.3533  16.9041  19.5576
    19.5634  29.0669  29.7343  30.6242  35.1448  36.7386  37.3293  44.0044
    46.8572  46.8843  47.3853  51.1404  51.9056  59.7440  61.5483  62.1910
    64.7543  67.4744  68.9432  70.4808  70.6331  71.8850  74.0750  74.6283
    75.6323  77.4583  81.4672  84.3681  85.2536  85.9725  90.0294  90.8543

     occupation numbers 
     1.0000   1.0000   1.0000   1.0000   1.0000   0.0000   0.0000   0.0000
     0.0000   0.0000   0.0000   0.0000   0.0000   0.0000   0.0000   0.0000
     0.0000   0.0000   0.0000   0.0000   0.0000   0.0000   0.0000   0.0000
     0.0000   0.0000   0.0000   0.0000   0.0000   0.0000   0.0000   0.0000
     0.0000   0.0000   0.0000   0.0000   0.0000   0.0000   0.0000   0.0000

          k =-0.1768-0.2652 0.2652 (  1135 PWs)   bands (ev):

   -40.2889 -18.8494  -1.2318   0.3104   0.4879  11.2054  17.2223  19.9453
    19.9970  28.0637  28.5692  30.1292  35.9212  36.3397  37.2185  42.9847
    44.5759  47.4895  47.5407  50.9758  51.9288  61.0356  62.9559  64.0963
    65.7421  66.7741  69.5776  71.0915  72.1256  74.0507  74.1601  75.2822
    76.3189  79.0933  83.3659  83.9112  85.1090  85.4526  89.1226  90.1429

     occupation numbers 
     1.0000   1.0000   1.0000   1.0000   1.0000   0.0000   0.0000   0.0000
     0.0000   0.0000   0.0000   0.0000   0.0000   0.0000   0.0000   0.0000
     0.0000   0.0000   0.0000   0.0000   0.0000   0.0000   0.0000   0.0000
     0.0000   0.0000   0.0000   0.0000   0.0000   0.0000   0.0000   0.0000
     0.0000   0.0000   0.0000   0.0000   0.0000   0.0000   0.0000   0.0000

          k =-0.1326-0.2210 0.2210 (  1128 PWs)   bands (ev):

   -40.2977 -18.9246  -0.8325   0.3513   0.5360  10.9137  17.8616  20.4664
    20.6277  27.1428  27.4080  29.3560  35.3961  35.6599  37.6491  40.1458
    44.6075  46.9351  47.7884  52.0786  53.6394  61.4195  63.9488  65.5822
    66.2435  66.4591  69.2554  73.0333  73.5961  74.8569  76.2438  77.2482
    78.2788  80.9299  82.0709  84.4638  85.6410  85.7017  87.9543  88.6971

     occupation numbers 
     1.0000   1.0000   1.0000   1.0000   1.0000   0.0000   0.0000   0.0000
     0.0000   0.0000   0.0000   0.0000   0.0000   0.0000   0.0000   0.0000
     0.0000   0.0000   0.0000   0.0000   0.0000   0.0000   0.0000   0.0000
     0.0000   0.0000   0.0000   0.0000   0.0000   0.0000   0.0000   0.0000
     0.0000   0.0000   0.0000   0.0000   0.0000   0.0000   0.0000   0.0000

          k =-0.0884-0.1768 0.1768 (  1135 PWs)   bands (ev):

   -40.3070 -19.0018  -0.3882   0.4065   0.5773  10.5025  18.8704  21.0767
    21.4344  26.3613  26.3631  28.5236  34.2345  34.7344  35.4866  40.5885
    44.4411  46.0545  48.0344  54.2397  56.2863  61.8837  64.1504  65.8774
    66.5219  66.8132  69.2165  72.4708  73.8252  77.4838  78.3324  80.4617
    81.2447  81.4386  82.0001  82.4476  84.9353  87.6455  87.9023  88.1319

     occupation numbers 
     1.0000   1.0000   1.0000   1.0000   1.0000   0.0000   0.0000   0.0000
     0.0000   0.0000   0.0000   0.0000   0.0000   0.0000   0.0000   0.0000
     0.0000   0.0000   0.0000   0.0000   0.0000   0.0000   0.0000   0.0000
     0.0000   0.0000   0.0000   0.0000   0.0000   0.0000   0.0000   0.0000
     0.0000   0.0000   0.0000   0.0000   0.0000   0.0000   0.0000   0.0000

          k =-0.0442-0.1326 0.1326 (  1150 PWs)   bands (ev):

   -40.3154 -19.0696   0.0359   0.4699   0.6056  10.0590  20.2158  21.7229
    22.3670  25.4999  25.7560  27.6812  32.5813  33.0831  33.6877  42.0693
    44.2667  45.3140  48.1492  57.0225  59.2852  62.6191  64.0952  65.7336
    66.4426  67.4422  69.3756  71.8353  72.0099  75.9037  79.0758  81.2366
    82.0173  83.3777  83.4746  85.0474  86.8129  88.9944  89.3787  89.5812

     occupation numbers 
     1.0000   1.0000   1.0000   1.0000   1.0000   0.0000   0.0000   0.0000
     0.0000   0.0000   0.0000   0.0000   0.0000   0.0000   0.0000   0.0000
     0.0000   0.0000   0.0000   0.0000   0.0000   0.0000   0.0000   0.0000
     0.0000   0.0000   0.0000   0.0000   0.0000   0.0000   0.0000   0.0000
     0.0000   0.0000   0.0000   0.0000   0.0000   0.0000   0.0000   0.0000

          k = 0.0000-0.0884 0.0884 (  1147 PWs)   bands (ev):

   -40.3215 -19.1183   0.3577   0.5401   0.6163   9.6935  21.7207  22.4209
    23.2562  24.9384  25.3407  26.6858  30.1467  32.2490  32.7027  43.3144
    44.2551  44.7930  48.0988  60.0623  61.8674  63.4929  64.7466  65.7533
    66.1969  67.9816  69.3351  69.8303  71.6096  71.9101  75.3213  83.0711
    83.4971  85.9915  86.6186  86.8730  90.0704  91.3246  91.3284  91.7344

     occupation numbers 
     1.0000   1.0000   1.0000   1.0000   1.0000   0.0000   0.0000   0.0000
     0.0000   0.0000   0.0000   0.0000   0.0000   0.0000   0.0000   0.0000
     0.0000   0.0000   0.0000   0.0000   0.0000   0.0000   0.0000   0.0000
     0.0000   0.0000   0.0000   0.0000   0.0000   0.0000   0.0000   0.0000
     0.0000   0.0000   0.0000   0.0000   0.0000   0.0000   0.0000   0.0000

          k = 0.1768 0.0000 0.0000 (  1155 PWs)   bands (ev):

   -40.3169 -19.0801   0.2304   0.4747   0.4747  10.0166  21.9174  22.0052
    22.0052  22.3066  28.0793  28.0793  31.3717  32.2131  33.6706  43.5363
    44.0906  44.0906  48.2738  59.7842  59.7842  59.7958  64.9404  65.3794
    66.4236  68.3795  68.3795  70.8981  74.6061  74.6061  77.5321  81.9191
    81.9191  83.1787  83.3596  84.7390  89.0826  91.1171  91.1171  92.5906

     occupation numbers 
     1.0000   1.0000   1.0000   1.0000   1.0000   0.0000   0.0000   0.0000
     0.0000   0.0000   0.0000   0.0000   0.0000   0.0000   0.0000   0.0000
     0.0000   0.0000   0.0000   0.0000   0.0000   0.0000   0.0000   0.0000
     0.0000   0.0000   0.0000   0.0000   0.0000   0.0000   0.0000   0.0000
     0.0000   0.0000   0.0000   0.0000   0.0000   0.0000   0.0000   0.0000

          k = 0.2210 0.0442-0.0442 (  1146 PWs)   bands (ev):

   -40.3111 -19.0313  -0.0609   0.4075   0.4345  10.3947  20.2542  21.5408
    21.5826  22.6677  28.9192  29.0400  32.8607  33.3611  34.3194  42.4648
    43.9820  44.7001  48.3773  56.4649  58.1777  60.1192  63.7533  65.0822
    66.5542  68.2023  69.7007  71.2860  75.6783  76.8359  79.2312  79.4767
    80.5074  82.3842  83.3084  83.3162  86.5101  87.4619  88.7461  90.1807

     occupation numbers 
     1.0000   1.0000   1.0000   1.0000   1.0000   0.0000   0.0000   0.0000
     0.0000   0.0000   0.0000   0.0000   0.0000   0.0000   0.0000   0.0000
     0.0000   0.0000   0.0000   0.0000   0.0000   0.0000   0.0000   0.0000
     0.0000   0.0000   0.0000   0.0000   0.0000   0.0000   0.0000   0.0000
     0.0000   0.0000   0.0000   0.0000   0.0000   0.0000   0.0000   0.0000

          k = 0.2652 0.0884-0.0884 (  1134 PWs)   bands (ev):

   -40.3032 -18.9643  -0.4610   0.3450   0.3897  10.8548  18.8504  20.8616
    21.0238  23.5096  29.5910  29.7853  34.1332  34.8542  36.1349  41.0304
    43.8959  45.6512  48.5323  53.6574  56.1365  60.5627  61.9523  64.9970
    66.6235  67.8212  70.2443  72.4682  75.5355  75.5899  77.1300  80.1727
    80.7682  81.6982  82.0381  83.5656  84.4968  85.4054  87.3435  88.8865

     occupation numbers 
     1.0000   1.0000   1.0000   1.0000   1.0000   0.0000   0.0000   0.0000
     0.0000   0.0000   0.0000   0.0000   0.0000   0.0000   0.0000   0.0000
     0.0000   0.0000   0.0000   0.0000   0.0000   0.0000   0.0000   0.0000
     0.0000   0.0000   0.0000   0.0000   0.0000   0.0000   0.0000   0.0000
     0.0000   0.0000   0.0000   0.0000   0.0000   0.0000   0.0000   0.0000

          k = 0.3094 0.1326-0.1326 (  1134 PWs)   bands (ev):

   -40.2944 -18.8884  -0.8758   0.2968   0.3197  11.2948  17.7931  20.2310
    20.5041  24.4965  30.3227  30.4740  35.2095  35.6391  38.3965  40.5278
    43.7079  46.3257  49.1226  51.6453  53.9329  60.5817  61.0877  64.4762
    66.4908  67.3203  69.2507  72.0357  73.1131  75.8470  77.0514  77.6206
    79.0101  79.5959  81.2042  83.7812  85.0233  86.1935  88.0130  88.7003

     occupation numbers 
     1.0000   1.0000   1.0000   1.0000   1.0000   0.0000   0.0000   0.0000
     0.0000   0.0000   0.0000   0.0000   0.0000   0.0000   0.0000   0.0000
     0.0000   0.0000   0.0000   0.0000   0.0000   0.0000   0.0000   0.0000
     0.0000   0.0000   0.0000   0.0000   0.0000   0.0000   0.0000   0.0000
     0.0000   0.0000   0.0000   0.0000   0.0000   0.0000   0.0000   0.0000

          k = 0.3536 0.1768-0.1768 (  1141 PWs)   bands (ev):

   -40.2861 -18.8149  -1.2436   0.2326   0.2698  11.6243  17.0977  19.7466
    20.0373  25.5939  31.0540  31.1331  35.2844  36.9298  37.8556  43.3743
    43.4101  46.3295  50.2572  50.7358  52.0847  59.5774  61.6050  62.8074
    65.9344  66.8000  67.6091  70.2922  71.6095  74.2458  75.9681  75.9869
    78.6039  79.5058  80.0233  84.4914  84.9303  86.9434  87.2914  89.4088

     occupation numbers 
     1.0000   1.0000   1.0000   1.0000   1.0000   0.0000   0.0000   0.0000
     0.0000   0.0000   0.0000   0.0000   0.0000   0.0000   0.0000   0.0000
     0.0000   0.0000   0.0000   0.0000   0.0000   0.0000   0.0000   0.0000
     0.0000   0.0000   0.0000   0.0000   0.0000   0.0000   0.0000   0.0000
     0.0000   0.0000   0.0000   0.0000   0.0000   0.0000   0.0000   0.0000

          k = 0.3977 0.2210-0.2210 (  1131 PWs)   bands (ev):

   -40.2796 -18.7557  -1.5189   0.1425   0.2680  11.8041  16.7204  19.4346
    19.6726  26.7528  31.4878  31.6177  35.2250  37.2963  37.5130  43.4845
    45.3321  47.3761  49.8562  50.9237  52.4683  58.8484  60.2780  61.8675
    63.5129  66.3555  67.7573  67.7927  71.3734  72.7316  74.3012  74.7234
    79.1174  79.3402  79.8685  84.0261  85.5154  86.0328  88.1888  89.8769

     occupation numbers 
     1.0000   1.0000   1.0000   1.0000   1.0000   0.0000   0.0000   0.0000
     0.0000   0.0000   0.0000   0.0000   0.0000   0.0000   0.0000   0.0000
     0.0000   0.0000   0.0000   0.0000   0.0000   0.0000   0.0000   0.0000
     0.0000   0.0000   0.0000   0.0000   0.0000   0.0000   0.0000   0.0000
     0.0000   0.0000   0.0000   0.0000   0.0000   0.0000   0.0000   0.0000

          k =-0.2652-0.4419 0.4419 (  1133 PWs)   bands (ev):

   -40.2757 -18.7209  -1.6711   0.0639   0.2909  11.8648  16.5550  19.2973
    19.4477  27.9093  31.2481  31.6646  35.4035  37.2796  37.3611  44.3794
    44.4124  48.8744  50.9529  51.7807  53.1776  56.8906  59.1970  61.3734
    61.5872  65.8728  66.5443  68.6014  70.5682  72.2486  73.1192  73.9402
    78.9417  79.8342  80.0865  83.7728  84.3245  85.7371  90.5123  90.5770

     occupation numbers 
     1.0000   1.0000   1.0000   1.0000   1.0000   0.0000   0.0000   0.0000
     0.0000   0.0000   0.0000   0.0000   0.0000   0.0000   0.0000   0.0000
     0.0000   0.0000   0.0000   0.0000   0.0000   0.0000   0.0000   0.0000
     0.0000   0.0000   0.0000   0.0000   0.0000   0.0000   0.0000   0.0000
     0.0000   0.0000   0.0000   0.0000   0.0000   0.0000   0.0000   0.0000

          k =-0.2210-0.3977 0.3977 (  1138 PWs)   bands (ev):

   -40.2752 -18.7168  -1.6841   0.0098   0.3354  11.8598  16.5038  19.3190
    19.3896  28.9502  30.5080  31.0855  35.6555  37.0684  37.7980  43.3463
    45.8720  48.3805  51.6565  52.5992  52.6285  55.8963  60.1492  60.3416
    61.6598  65.3066  66.8683  69.1905  70.0783  71.9939  72.6120  73.8580
    79.0605  80.0767  80.2271  83.6768  84.1488  85.3519  90.2599  91.1921

     occupation numbers 
     1.0000   1.0000   1.0000   1.0000   1.0000   0.0000   0.0000   0.0000
     0.0000   0.0000   0.0000   0.0000   0.0000   0.0000   0.0000   0.0000
     0.0000   0.0000   0.0000   0.0000   0.0000   0.0000   0.0000   0.0000
     0.0000   0.0000   0.0000   0.0000   0.0000   0.0000   0.0000   0.0000
     0.0000   0.0000   0.0000   0.0000   0.0000   0.0000   0.0000   0.0000

          k =-0.1768-0.3536 0.3536 (  1140 PWs)   bands (ev):

   -40.2780 -18.7439  -1.5575  -0.0105   0.3949  11.7991  16.5556  19.4761
    19.5152  29.2597  30.0206  30.0815  35.8796  36.8540  38.3208  42.7654
    47.6665  48.1231  48.6166  50.7940  52.5399  58.5875  60.0242  61.0926
    64.0594  65.0090  67.9142  68.4336  71.3134  71.7742  72.8223  74.3628
    79.2789  79.6134  80.8688  83.7053  84.7785  85.2127  88.6214  91.3475

     occupation numbers 
     1.0000   1.0000   1.0000   1.0000   1.0000   0.0000   0.0000   0.0000
     0.0000   0.0000   0.0000   0.0000   0.0000   0.0000   0.0000   0.0000
     0.0000   0.0000   0.0000   0.0000   0.0000   0.0000   0.0000   0.0000
     0.0000   0.0000   0.0000   0.0000   0.0000   0.0000   0.0000   0.0000
     0.0000   0.0000   0.0000   0.0000   0.0000   0.0000   0.0000   0.0000

          k =-0.1326-0.3094 0.3094 (  1137 PWs)   bands (ev):

   -40.2838 -18.7976  -1.3073   0.0081   0.4610  11.6391  16.7898  19.7461
    19.8318  28.4103  28.7743  30.3652  36.2109  36.5794  38.2366  42.7869
    45.1701  47.9650  49.1251  49.9986  52.1099  59.7228  60.4450  63.3801
    65.0264  66.4154  68.5924  69.6572  71.4381  73.2413  73.6369  75.3591
    78.8053  79.6915  82.0636  83.4087  84.0696  86.6677  87.2700  90.0383

     occupation numbers 
     1.0000   1.0000   1.0000   1.0000   1.0000   0.0000   0.0000   0.0000
[...]

   -40.2682 -18.6072  -1.5098  -0.8174   0.0524  13.6797  15.7696  18.9357
    19.4436  26.5127  29.2636  35.3409  35.7747  38.4922  38.8362  44.4544
    46.9731  49.7681  51.1520  52.4934  52.9313  55.4646  57.4362  59.0910
    61.0935  61.6352  63.8303  66.2817  68.1897  70.4042  72.7343  75.3279
    76.0663  80.3941  83.6842  85.3632  86.7397  90.1198  90.6163  92.7788

     occupation numbers 
     1.0000   1.0000   1.0000   1.0000   1.0000   0.0000   0.0000   0.0000
     0.0000   0.0000   0.0000   0.0000   0.0000   0.0000   0.0000   0.0000
     0.0000   0.0000   0.0000   0.0000   0.0000   0.0000   0.0000   0.0000
     0.0000   0.0000   0.0000   0.0000   0.0000   0.0000   0.0000   0.0000
     0.0000   0.0000   0.0000   0.0000   0.0000   0.0000   0.0000   0.0000

          k =-0.0884-0.3536 0.5303 (  1139 PWs)   bands (ev):

   -40.2687 -18.6153  -1.4419  -0.8681   0.0897  13.6012  15.7242  19.0649
    19.3939  27.4916  28.2880  35.1839  35.5948  37.4993  40.1384  43.9541
    47.7973  49.3642  51.1241  52.0595  53.4001  54.5869  57.8240  59.4695
    61.1445  62.8276  63.8091  65.4087  68.1511  70.8304  72.8417  75.0453
    76.2835  80.2211  83.5933  84.9428  86.9349  89.8536  91.1999  93.1409

     occupation numbers 
     1.0000   1.0000   1.0000   1.0000   1.0000   0.0000   0.0000   0.0000
     0.0000   0.0000   0.0000   0.0000   0.0000   0.0000   0.0000   0.0000
     0.0000   0.0000   0.0000   0.0000   0.0000   0.0000   0.0000   0.0000
     0.0000   0.0000   0.0000   0.0000   0.0000   0.0000   0.0000   0.0000
     0.0000   0.0000   0.0000   0.0000   0.0000   0.0000   0.0000   0.0000

          k =-0.0442-0.3094 0.4861 (  1136 PWs)   bands (ev):

   -40.2716 -18.6490  -1.3539  -0.7913   0.1541  13.3080  15.8633  19.2180
    19.5043  26.7798  28.9857  34.2582  36.1029  36.9519  40.9435  42.9382
    47.3867  48.9491  49.4865  52.0127  53.6109  55.4027  57.1720  61.2669
    61.9974  62.3092  65.3653  67.1403  69.0518  71.9689  73.1432  74.4770
    76.4891  80.2524  81.8788  84.8382  87.3337  89.5311  91.4051  92.5097

     occupation numbers 
     1.0000   1.0000   1.0000   1.0000   1.0000   0.0000   0.0000   0.0000
     0.0000   0.0000   0.0000   0.0000   0.0000   0.0000   0.0000   0.0000
     0.0000   0.0000   0.0000   0.0000   0.0000   0.0000   0.0000   0.0000
     0.0000   0.0000   0.0000   0.0000   0.0000   0.0000   0.0000   0.0000
     0.0000   0.0000   0.0000   0.0000   0.0000   0.0000   0.0000   0.0000

          k = 0.0000-0.2652 0.4419 (  1136 PWs)   bands (ev):

   -40.2765 -18.7025  -1.2701  -0.5776   0.2283  12.8349  16.2231  19.3785
    19.7427  25.7082  30.0832  33.1590  36.2400  37.1942  40.0800  42.6417
    46.7703  46.9652  48.4335  52.7411  53.3614  56.6309  57.8911  60.7108
    63.4661  63.8249  66.5980  69.8844  71.4574  73.1889  73.2222  74.7966
    76.2330  79.4944  81.0853  84.3593  86.9379  88.5485  91.4084  92.1689

     occupation numbers 
     1.0000   1.0000   1.0000   1.0000   1.0000   0.0000   0.0000   0.0000
     0.0000   0.0000   0.0000   0.0000   0.0000   0.0000   0.0000   0.0000
     0.0000   0.0000   0.0000   0.0000   0.0000   0.0000   0.0000   0.0000
     0.0000   0.0000   0.0000   0.0000   0.0000   0.0000   0.0000   0.0000
     0.0000   0.0000   0.0000   0.0000   0.0000   0.0000   0.0000   0.0000

          k =-0.1768-0.5303 0.7071 (  1129 PWs)   bands (ev):

   -40.2716 -18.6272  -1.6253  -0.4709  -0.0596  13.7590  16.4553  18.6070
    19.9713  22.9910  32.3432  35.4593  37.5474  37.6536  40.7577  42.1824
    44.4796  47.2843  48.5484  51.8479  54.6545  55.3339  57.6059  59.8890
    60.5780  63.6976  66.8082  67.6612  72.6647  73.4538  73.7828  74.4051
    76.8501  77.7352  81.1074  87.5501  87.6306  89.9569  90.4907  90.9601

     occupation numbers 
     1.0000   1.0000   1.0000   1.0000   1.0000   0.0000   0.0000   0.0000
     0.0000   0.0000   0.0000   0.0000   0.0000   0.0000   0.0000   0.0000
     0.0000   0.0000   0.0000   0.0000   0.0000   0.0000   0.0000   0.0000
     0.0000   0.0000   0.0000   0.0000   0.0000   0.0000   0.0000   0.0000
     0.0000   0.0000   0.0000   0.0000   0.0000   0.0000   0.0000   0.0000

          k =-0.1326-0.4861 0.6629 (  1140 PWs)   bands (ev):

   -40.2680 -18.5880  -1.6601  -0.6837  -0.0803  14.2018  16.0117  18.4263
    19.7439  23.9724  31.5280  35.0650  37.1120  38.8594  40.6059  43.0132
    45.6506  48.7359  49.2419  52.0147  54.8984  55.4205  55.9037  58.9787
    59.8616  62.7691  65.7009  66.8598  70.0531  71.6934  72.8879  74.2171
    76.3190  79.7974  81.4572  86.6181  88.6723  89.4071  90.4346  92.1593

     occupation numbers 
     1.0000   1.0000   1.0000   1.0000   1.0000   0.0000   0.0000   0.0000
     0.0000   0.0000   0.0000   0.0000   0.0000   0.0000   0.0000   0.0000
     0.0000   0.0000   0.0000   0.0000   0.0000   0.0000   0.0000   0.0000
     0.0000   0.0000   0.0000   0.0000   0.0000   0.0000   0.0000   0.0000
     0.0000   0.0000   0.0000   0.0000   0.0000   0.0000   0.0000   0.0000

          k =-0.0884-0.4419 0.6187 (  1138 PWs)   bands (ev):

   -40.2661 -18.5694  -1.5893  -0.8985  -0.0668  14.4594  15.6436  18.4392
    19.5618  25.0836  30.5043  34.6143  37.0046  39.0547  40.2550  44.2839
    47.0033  49.0324  50.0110  52.2602  53.9676  55.4102  56.7340  58.4288
    59.6749  62.0235  64.4838  66.0970  67.9670  70.0926  72.3429  74.6318
    75.8763  81.5082  82.3569  85.1936  88.8367  89.2794  90.9374  93.5413

     occupation numbers 
     1.0000   1.0000   1.0000   1.0000   1.0000   0.0000   0.0000   0.0000
     0.0000   0.0000   0.0000   0.0000   0.0000   0.0000   0.0000   0.0000
     0.0000   0.0000   0.0000   0.0000   0.0000   0.0000   0.0000   0.0000
     0.0000   0.0000   0.0000   0.0000   0.0000   0.0000   0.0000   0.0000
     0.0000   0.0000   0.0000   0.0000   0.0000   0.0000   0.0000   0.0000

          k =-0.0442-0.3977 0.5745 (  1137 PWs)   bands (ev):

   -40.2661 -18.5746  -1.4145  -1.0924  -0.0152  14.3988  15.4398  18.6536
    19.4434  26.2907  29.2522  34.7138  36.6955  37.7327  41.5151  44.0034
    48.2927  49.6479  50.4194  51.8306  52.3621  56.3060  57.1251  58.9373
    59.5618  62.5509  64.4533  65.2454  65.7962  70.4160  72.2855  74.2963
    76.2376  81.3458  83.5323  84.3423  89.0175  89.1770  91.7939  94.7186

     occupation numbers 
     1.0000   1.0000   1.0000   1.0000   1.0000   0.0000   0.0000   0.0000
     0.0000   0.0000   0.0000   0.0000   0.0000   0.0000   0.0000   0.0000
     0.0000   0.0000   0.0000   0.0000   0.0000   0.0000   0.0000   0.0000
     0.0000   0.0000   0.0000   0.0000   0.0000   0.0000   0.0000   0.0000
     0.0000   0.0000   0.0000   0.0000   0.0000   0.0000   0.0000   0.0000

          k = 0.0000-0.3536 0.5303 (  1138 PWs)   bands (ev):

   -40.2680 -18.6028  -1.2690  -1.1212   0.0646  13.9473  15.5447  18.9637
    19.4085  27.5971  27.9506  35.3003  35.5737  37.2323  42.0976  43.1091
    48.0486  49.7636  50.2277  52.3480  53.4556  53.8011  56.9708  60.6387
    60.9422  62.9342  64.7346  65.1222  66.2284  71.2436  72.8490  73.8019
    76.6869  80.9669  82.3013  85.1478  88.6678  89.3341  92.4981  92.9542

     occupation numbers 
     1.0000   1.0000   1.0000   1.0000   1.0000   0.0000   0.0000   0.0000
     0.0000   0.0000   0.0000   0.0000   0.0000   0.0000   0.0000   0.0000
     0.0000   0.0000   0.0000   0.0000   0.0000   0.0000   0.0000   0.0000
     0.0000   0.0000   0.0000   0.0000   0.0000   0.0000   0.0000   0.0000
     0.0000   0.0000   0.0000   0.0000   0.0000   0.0000   0.0000   0.0000

          k =-0.0884-0.5303 0.7071 (  1138 PWs)   bands (ev):

   -40.2663 -18.5552  -1.8631  -0.5855  -0.1836  14.6773  16.2090  17.9945
    19.9030  22.7945  32.8395  34.8079  37.6297  40.8669  41.5470  41.9255
    44.9880  48.3891  48.4778  51.8772  53.1788  55.8420  56.5399  57.6863
    60.3588  60.7504  66.6561  67.9039  70.7114  72.6518  73.6883  74.1880
    76.4356  78.0863  81.3477  86.0213  87.5225  88.8686  88.8798  91.0670

     occupation numbers 
     1.0000   1.0000   1.0000   1.0000   1.0000   0.0000   0.0000   0.0000
     0.0000   0.0000   0.0000   0.0000   0.0000   0.0000   0.0000   0.0000
     0.0000   0.0000   0.0000   0.0000   0.0000   0.0000   0.0000   0.0000
     0.0000   0.0000   0.0000   0.0000   0.0000   0.0000   0.0000   0.0000
     0.0000   0.0000   0.0000   0.0000   0.0000   0.0000   0.0000   0.0000

          k =-0.0442-0.4861 0.6629 (  1139 PWs)   bands (ev):

   -40.2647 -18.5419  -1.7879  -0.7807  -0.1665  15.0011  15.7831  17.9275
    19.7061  23.8158  32.0836  33.9650  37.6853  40.0716  41.9488  43.2581
    46.7496  47.3219  49.2776  52.6935  54.5039  55.4636  55.9829  57.2742
    59.7311  60.3442  65.9783  66.9946  68.8742  71.2383  72.0233  74.2867
    75.6640  80.1327  82.4310  84.9244  88.1879  88.7226  92.4165  92.9883

     occupation numbers 
     1.0000   1.0000   1.0000   1.0000   1.0000   0.0000   0.0000   0.0000
     0.0000   0.0000   0.0000   0.0000   0.0000   0.0000   0.0000   0.0000
     0.0000   0.0000   0.0000   0.0000   0.0000   0.0000   0.0000   0.0000
     0.0000   0.0000   0.0000   0.0000   0.0000   0.0000   0.0000   0.0000
     0.0000   0.0000   0.0000   0.0000   0.0000   0.0000   0.0000   0.0000

          k = 0.0000-0.4419 0.6187 (  1136 PWs)   bands (ev):

   -40.2647 -18.5487  -1.6117  -0.9815  -0.1069  15.1524  15.2296  18.2062
    19.5525  24.9856  30.6892  34.0859  37.6641  38.4237  42.5878  43.6129
    47.3964  48.5376  50.2767  51.3830  53.9611  56.1840  56.6243  58.7645
    59.3110  60.2954  64.9145  65.5390  67.4991  70.5567  71.4900  74.3421
    75.6981  82.1350  82.6985  84.0026  88.5998  89.2739  92.4970  95.5293

     occupation numbers 
     1.0000   1.0000   1.0000   1.0000   1.0000   0.0000   0.0000   0.0000
     0.0000   0.0000   0.0000   0.0000   0.0000   0.0000   0.0000   0.0000
     0.0000   0.0000   0.0000   0.0000   0.0000   0.0000   0.0000   0.0000
     0.0000   0.0000   0.0000   0.0000   0.0000   0.0000   0.0000   0.0000
     0.0000   0.0000   0.0000   0.0000   0.0000   0.0000   0.0000   0.0000

          k =-0.7071 0.1768 0.0000 (  1142 PWs)   bands (ev):

   -40.2644 -18.5291  -1.9496  -0.6254  -0.2263  15.1126  16.1267  17.6750
    19.8829  22.7345  33.5190  33.9024  37.8937  41.2907  41.8189  43.0204
    46.0689  46.8628  48.3923  52.3329  53.2219  56.0343  56.6704  57.5298
    57.6148  60.3534  66.9270  69.5721  69.7963  71.1979  73.7134  74.1074
    76.0726  78.2585  82.0734  84.3284  87.6603  88.1148  88.8948  90.9550

     occupation numbers 
     1.0000   1.0000   1.0000   1.0000   1.0000   0.0000   0.0000   0.0000
     0.0000   0.0000   0.0000   0.0000   0.0000   0.0000   0.0000   0.0000
     0.0000   0.0000   0.0000   0.0000   0.0000   0.0000   0.0000   0.0000
     0.0000   0.0000   0.0000   0.0000   0.0000   0.0000   0.0000   0.0000
     0.0000   0.0000   0.0000   0.0000   0.0000   0.0000   0.0000   0.0000

          k =-0.1768-0.4419 0.7071 (  1131 PWs)   bands (ev):

   -40.2699 -18.6188  -1.4689  -0.7767   0.0281  13.7915  15.9137  18.7879
    19.6029  25.2675  30.0709  35.5607  36.4918  37.0893  41.4819  42.5730
    46.4333  49.0022  49.0366  52.1185  54.3763  55.5248  56.8919  59.7959
    60.8938  62.6478  65.1970  68.2162  69.0768  71.0513  72.3089  74.3241
    76.5292  80.0477  81.8186  86.9278  88.0105  89.5943  92.0708  93.7418

     occupation numbers 
     1.0000   1.0000   1.0000   1.0000   1.0000   0.0000   0.0000   0.0000
     0.0000   0.0000   0.0000   0.0000   0.0000   0.0000   0.0000   0.0000
     0.0000   0.0000   0.0000   0.0000   0.0000   0.0000   0.0000   0.0000
     0.0000   0.0000   0.0000   0.0000   0.0000   0.0000   0.0000   0.0000
     0.0000   0.0000   0.0000   0.0000   0.0000   0.0000   0.0000   0.0000

          k =-0.1326-0.3977 0.6629 (  1136 PWs)   bands (ev):

   -40.2670 -18.5848  -1.4408  -0.9967  -0.0184  14.2368  15.6443  18.5906
    19.4403  26.4051  28.8919  34.9160  37.0211  38.0622  40.9645  43.5252
    47.7205  48.9685  50.0719  52.9561  53.2086  54.5298  57.1864  59.8481
    61.3056  61.6871  64.1766  66.2192  66.9137  69.5173  71.6912  74.7757
    76.2453  81.7200  82.4311  86.2919  87.8955  91.4782  91.9780  93.6815

     occupation numbers 
     1.0000   1.0000   1.0000   1.0000   1.0000   0.0000   0.0000   0.0000
     0.0000   0.0000   0.0000   0.0000   0.0000   0.0000   0.0000   0.0000
     0.0000   0.0000   0.0000   0.0000   0.0000   0.0000   0.0000   0.0000
     0.0000   0.0000   0.0000   0.0000   0.0000   0.0000   0.0000   0.0000
     0.0000   0.0000   0.0000   0.0000   0.0000   0.0000   0.0000   0.0000

          k =-0.0884-0.3536 0.6187 (  1138 PWs)   bands (ev):

   -40.2660 -18.5727  -1.4054  -1.0979  -0.0364  14.4109  15.5501  18.5081
    19.3837  27.3840  27.9143  34.6462  37.0811  39.4193  39.6616  44.3182
    47.6879  50.0641  50.2979  52.0184  52.0848  56.9494  57.0238  58.4277
    61.0507  62.4515  64.1796  64.3263  66.7453  68.6188  71.6102  75.1681
    75.8089  82.3476  83.1779  85.4533  87.9056  91.6075  93.3162  93.7111

     occupation numbers 
     1.0000   1.0000   1.0000   1.0000   1.0000   0.0000   0.0000   0.0000
     0.0000   0.0000   0.0000   0.0000   0.0000   0.0000   0.0000   0.0000
     0.0000   0.0000   0.0000   0.0000   0.0000   0.0000   0.0000   0.0000
     0.0000   0.0000   0.0000   0.0000   0.0000   0.0000   0.0000   0.0000
     0.0000   0.0000   0.0000   0.0000   0.0000   0.0000   0.0000   0.0000

          k =-0.0884-0.4419 0.7071 (  1137 PWs)   bands (ev):

   -40.2656 -18.5589  -1.6139  -0.9075  -0.1129  14.7250  15.7356  18.1023
    19.5440  25.0222  30.3479  34.3486  37.5601  39.9381  41.7189  42.4136
    47.3944  47.8191  49.6535  52.8384  54.4735  55.3750  56.1369  57.9996
    60.3721  61.8583  65.5673  66.2059  67.2482  69.7681  70.9953  74.8117
    76.1793  80.4499  82.7849  86.3759  90.0130  90.6705  92.2790  93.1610

     occupation numbers 
     1.0000   1.0000   1.0000   1.0000   1.0000   0.0000   0.0000   0.0000
     0.0000   0.0000   0.0000   0.0000   0.0000   0.0000   0.0000   0.0000
     0.0000   0.0000   0.0000   0.0000   0.0000   0.0000   0.0000   0.0000
     0.0000   0.0000   0.0000   0.0000   0.0000   0.0000   0.0000   0.0000
     0.0000   0.0000   0.0000   0.0000   0.0000   0.0000   0.0000   0.0000

          k =-0.0442-0.3977 0.6629 (  1141 PWs)   bands (ev):

   -40.2645 -18.5480  -1.4814  -1.1204  -0.1160  15.0573  15.4694  17.9814
    19.4244  26.2304  29.0357  34.0286  37.7010  40.5435  41.1948  43.4345
    46.5266  49.3187  50.5315  51.8789  53.0163  56.2011  57.6409  58.3325
    60.5673  61.6394  64.2160  64.7022  66.9409  68.2508  70.1013  75.2948
    75.6479  82.0134  83.3452  85.4429  90.5782  91.2794  92.8472  93.8825

     occupation numbers 
     1.0000   1.0000   1.0000   1.0000   1.0000   0.0000   0.0000   0.0000
     0.0000   0.0000   0.0000   0.0000   0.0000   0.0000   0.0000   0.0000
     0.0000   0.0000   0.0000   0.0000   0.0000   0.0000   0.0000   0.0000
     0.0000   0.0000   0.0000   0.0000   0.0000   0.0000   0.0000   0.0000
     0.0000   0.0000   0.0000   0.0000   0.0000   0.0000   0.0000   0.0000

          k =-0.0000-0.3536 0.6187 (  1139 PWs)   bands (ev):

   -40.2650 -18.5572  -1.3060  -1.2687  -0.0813  14.8643  15.4181  18.2029
    19.3859  27.5262  27.6752  34.2566  37.6380  39.0925  42.0855  43.0312
    47.4089  49.4447  50.8489  51.8038  52.2913  56.4773  56.8228  59.3737
    60.9235  62.8777  63.4402  64.5473  65.4064  69.1574  70.1358  75.0554
    76.0031  82.6426  82.9135  85.3588  89.9304  91.9319  92.4512  94.0450

     occupation numbers 
     1.0000   1.0000   1.0000   1.0000   1.0000   0.0000   0.0000   0.0000
     0.0000   0.0000   0.0000   0.0000   0.0000   0.0000   0.0000   0.0000
     0.0000   0.0000   0.0000   0.0000   0.0000   0.0000   0.0000   0.0000
     0.0000   0.0000   0.0000   0.0000   0.0000   0.0000   0.0000   0.0000
     0.0000   0.0000   0.0000   0.0000   0.0000   0.0000   0.0000   0.0000

          k =-0.7071 0.2652 0.0000 (  1134 PWs)   bands (ev):

   -40.2641 -18.5372  -1.6678  -0.9529  -0.1625  15.2026  15.6776  17.7089
    19.5297  24.9443  30.5938  33.7424  37.8286  41.5223  42.2525  42.4367
    45.7236  48.3646  49.9352  52.6009  54.1670  56.1498  56.4123  58.1209
    59.4505  60.4443  65.3524  66.0459  68.7829  68.8057  69.5321  74.9313
    75.7618  80.6005  84.2084  84.6253  90.2714  92.0489  92.2953  92.7907

     occupation numbers 
     1.0000   1.0000   1.0000   1.0000   1.0000   0.0000   0.0000   0.0000
     0.0000   0.0000   0.0000   0.0000   0.0000   0.0000   0.0000   0.0000
     0.0000   0.0000   0.0000   0.0000   0.0000   0.0000   0.0000   0.0000
     0.0000   0.0000   0.0000   0.0000   0.0000   0.0000   0.0000   0.0000
     0.0000   0.0000   0.0000   0.0000   0.0000   0.0000   0.0000   0.0000

          k =-0.7071 0.3536 0.0000 (  1144 PWs)   bands (ev):

   -40.2640 -18.5405  -1.3200  -1.3200  -0.1360  15.3778  15.3778  17.7260
    19.3840  27.5860  27.5860  33.8107  37.8443  41.9110  41.9110  42.5038
    45.2280  50.2738  51.3675  51.3675  52.2868  55.6782  58.6788  58.6788
    62.2730  62.2730  62.5122  62.6696  67.7647  67.7647  68.5518  75.4715
    75.5871  82.7557  82.7557  86.1925  90.6854  93.2746  93.2746  94.3057

     occupation numbers 
     1.0000   1.0000   1.0000   1.0000   1.0000   0.0000   0.0000   0.0000
     0.0000   0.0000   0.0000   0.0000   0.0000   0.0000   0.0000   0.0000
     0.0000   0.0000   0.0000   0.0000   0.0000   0.0000   0.0000   0.0000
     0.0000   0.0000   0.0000   0.0000   0.0000   0.0000   0.0000   0.0000
     0.0000   0.0000   0.0000   0.0000   0.0000   0.0000   0.0000   0.0000

     highest occupied, lowest unoccupied level (ev):     0.6163    9.3856

     Writing all to output data dir ./outs/LiF.save/ :
     XML data file, pseudopotentials, collected wavefunctions

     init_run     :      0.19s CPU      0.18s WALL (       1 calls)
     electrons    :     13.19s CPU      7.02s WALL (       1 calls)

     Called by init_run:
     wfcinit      :      0.00s CPU      0.00s WALL (       1 calls)
     wfcinit:wfcr :      0.42s CPU      0.21s WALL (      37 calls)
     potinit      :      0.01s CPU      0.01s WALL (       1 calls)
     hinit0       :      0.18s CPU      0.17s WALL (       1 calls)

     Called by electrons:
     c_bands      :     13.17s CPU      7.01s WALL (       1 calls)
     v_of_rho     :      0.00s CPU      0.00s WALL (       1 calls)
     v_h          :      0.00s CPU      0.00s WALL (       1 calls)
     v_xc         :      0.00s CPU      0.00s WALL (       1 calls)

     Called by c_bands:
     init_us_2    :      0.00s CPU      0.00s WALL (      37 calls)
     cegterg      :     11.89s CPU      6.06s WALL (      49 calls)

     Called by sum_band:

     Called by *egterg:
     cdiaghg      :      6.84s CPU      3.85s WALL (     780 calls)
     cegterg:over :      0.57s CPU      0.24s WALL (     743 calls)
     cegterg:upda :      0.78s CPU      0.09s WALL (     743 calls)
     cegterg:last :      0.36s CPU      0.06s WALL (     160 calls)
     h_psi        :      3.58s CPU      1.93s WALL (     829 calls)
     g_psi        :      0.01s CPU      0.01s WALL (     743 calls)

     Called by h_psi:
     h_psi:calbec :      0.50s CPU      0.07s WALL (     829 calls)
     vloc_psi     :      2.74s CPU      1.84s WALL (     829 calls)
     add_vuspsi   :      0.33s CPU      0.02s WALL (     829 calls)

     General routines
     calbec       :      0.50s CPU      0.06s WALL (     829 calls)
     fft          :      0.17s CPU      0.16s WALL (      10 calls)
     fftw         :      2.43s CPU      1.62s WALL (   36614 calls)
     davcio       :      0.02s CPU      0.03s WALL (      74 calls)

     Parallel routines

     PWSCF        :     14.05s CPU      7.90s WALL


   This run was terminated on:  11:19:19  13Jul2026            

=------------------------------------------------------------------------------=
   JOB DONE.
=------------------------------------------------------------------------------=
